/*--------------------------------*- C++ -*----------------------------------*\
  =========                 |
  \\      /  F ield         | OpenFOAM: The Open Source CFD Toolbox
   \\    /   O peration     | Website:  https://openfoam.org
    \\  /    A nd           | Version:  9
     \\/     M anipulation  |
\*---------------------------------------------------------------------------*/
FoamFile
{
    format      ascii;
    class       volScalarField;
    location    "37";
    object      p;
}
// * * * * * * * * * * * * * * * * * * * * * * * * * * * * * * * * * * * * * //

dimensions      [0 2 -2 0 0 0 0];

internalField   nonuniform List<scalar> 
8800
(
0.981363
0.933574
0.89488
0.865878
0.845004
0.830157
0.819539
0.81203
0.807171
0.805059
0.806259
0.810395
0.816995
0.826276
0.83903
0.856747
0.881513
0.915446
0.957988
1.01669
0.812624
0.820302
0.827766
0.83107
0.829559
0.824469
0.817966
0.811865
0.807105
0.804211
0.80387
0.806307
0.810741
0.816645
0.823384
0.829641
0.833266
0.832521
0.827089
0.818392
0.791046
0.797205
0.801327
0.804262
0.806298
0.806886
0.805756
0.80362
0.801558
0.800585
0.801476
0.803792
0.806538
0.808678
0.809254
0.808031
0.805671
0.802264
0.7977
0.793938
0.785273
0.787922
0.790667
0.79306
0.794682
0.795824
0.796537
0.796617
0.79627
0.796149
0.79682
0.797916
0.798695
0.798711
0.798063
0.796942
0.795102
0.792514
0.790101
0.788596
0.779942
0.781366
0.783138
0.785159
0.786928
0.788247
0.789206
0.78996
0.790515
0.790997
0.791553
0.79196
0.791985
0.791637
0.790892
0.789604
0.787876
0.786004
0.784685
0.783853
0.774931
0.77585
0.777085
0.778641
0.780258
0.781759
0.78301
0.784028
0.784922
0.785718
0.786293
0.786513
0.786379
0.785863
0.784919
0.783667
0.782297
0.781004
0.780167
0.779618
0.770108
0.770777
0.771734
0.773026
0.774418
0.775852
0.777255
0.778523
0.779641
0.780634
0.781316
0.781549
0.781347
0.780737
0.779847
0.778829
0.77776
0.776794
0.776192
0.775789
0.76543
0.765945
0.766724
0.767845
0.769106
0.770455
0.771862
0.773275
0.774612
0.775811
0.776647
0.776948
0.776768
0.776251
0.775537
0.77472
0.773869
0.773133
0.77268
0.772367
0.760834
0.761243
0.761896
0.762895
0.764086
0.765386
0.766787
0.768273
0.769788
0.771223
0.772259
0.772701
0.772671
0.772334
0.771808
0.771171
0.770499
0.769939
0.769594
0.769342
0.756239
0.756571
0.757135
0.758058
0.7592
0.760482
0.761908
0.763473
0.765144
0.766827
0.768128
0.768814
0.769014
0.768884
0.768548
0.768097
0.76759
0.767173
0.76691
0.766702
0.75157
0.751842
0.752346
0.753227
0.754355
0.75566
0.757149
0.758832
0.760697
0.762665
0.764305
0.765306
0.765779
0.765882
0.765745
0.765471
0.765114
0.764817
0.76462
0.764445
0.746755
0.746981
0.747446
0.748314
0.749466
0.750837
0.752434
0.754292
0.756414
0.758734
0.760794
0.76218
0.762965
0.763326
0.763404
0.763302
0.763096
0.762903
0.762759
0.762609
0.741718
0.741906
0.742351
0.743237
0.744454
0.745932
0.747691
0.749794
0.752266
0.755055
0.757621
0.759442
0.760582
0.761232
0.761544
0.761624
0.761563
0.761465
0.761367
0.761236
0.736385
0.73654
0.73698
0.737908
0.739229
0.740858
0.742828
0.745231
0.748119
0.751477
0.754672
0.757045
0.758632
0.75963
0.760212
0.760496
0.760578
0.760573
0.760517
0.760401
0.730665
0.73079
0.731236
0.732231
0.733695
0.735531
0.737789
0.740584
0.744004
0.748068
0.752032
0.755069
0.757186
0.758585
0.759475
0.760002
0.760253
0.760343
0.760325
0.760221
0.724448
0.724543
0.72501
0.7261
0.727749
0.72985
0.732479
0.735788
0.739892
0.744833
0.749742
0.75359
0.75632
0.758199
0.759451
0.760238
0.760681
0.760873
0.760895
0.760799
0.717596
0.717672
0.718154
0.719353
0.721237
0.723669
0.726764
0.730702
0.735659
0.741703
0.747757
0.752563
0.756065
0.758537
0.760235
0.761344
0.762008
0.762315
0.762379
0.762288
0.709853
0.709917
0.710461
0.711786
0.713949
0.716802
0.720477
0.725203
0.731198
0.738567
0.74605
0.752067
0.756487
0.75967
0.761937
0.763471
0.764411
0.764854
0.76496
0.764871
0.700989
0.701026
0.701637
0.703159
0.705683
0.709081
0.713513
0.719276
0.726637
0.735698
0.744873
0.752274
0.757777
0.761806
0.764749
0.766772
0.768051
0.768656
0.768804
0.768711
0.690575
0.690599
0.691295
0.693063
0.696041
0.700125
0.70551
0.712556
0.721569
0.732673
0.743948
0.753074
0.759905
0.764964
0.768732
0.77137
0.773064
0.773856
0.774042
0.773936
0.677979
0.677999
0.678827
0.680947
0.684571
0.689611
0.696295
0.70506
0.716234
0.729893
0.743647
0.75474
0.763083
0.769321
0.774016
0.777368
0.779525
0.780514
0.780732
0.780606
0.662354
0.662378
0.663423
0.666087
0.670639
0.677004
0.685448
0.69646
0.710356
0.727134
0.743843
0.757257
0.767353
0.774949
0.780694
0.784851
0.787503
0.788686
0.788929
0.788776
0.642509
0.642546
0.643942
0.647473
0.653421
0.661706
0.672615
0.686652
0.704035
0.724601
0.744756
0.760788
0.772834
0.781937
0.788859
0.793886
0.797047
0.798415
0.798678
0.798496
0.616661
0.616735
0.618752
0.623724
0.63192
0.643075
0.657513
0.675601
0.697372
0.722458
0.74654
0.765479
0.77968
0.790432
0.798627
0.804596
0.808261
0.809792
0.810058
0.809844
0.581861
0.582063
0.585337
0.592957
0.604942
0.620558
0.640027
0.663445
0.690604
0.720929
0.74937
0.771457
0.787957
0.8005
0.810079
0.817043
0.821193
0.822835
0.823077
0.822827
0.532445
0.533511
0.540092
0.553104
0.571631
0.594103
0.620502
0.650664
0.68419
0.720377
0.753488
0.778849
0.797737
0.812126
0.823184
0.831165
0.835741
0.837418
0.837599
0.837307
0.459389
0.466843
0.482111
0.505211
0.533418
0.564991
0.599866
0.637829
0.678483
0.721133
0.759382
0.788404
0.810011
0.826585
0.839451
0.848601
0.853725
0.855552
0.855748
0.855504
0.380696
0.398056
0.422753
0.456487
0.494785
0.535667
0.579128
0.625149
0.673433
0.723398
0.767937
0.801759
0.827046
0.846595
0.861897
0.87271
0.878508
0.880455
0.880706
0.880634
0.31541
0.335721
0.36824
0.410839
0.458005
0.507642
0.559415
0.613305
0.669045
0.726074
0.776576
0.814884
0.843611
0.865839
0.88301
0.894787
0.901046
0.90353
0.90382
0.903822
0.261939
0.283954
0.321876
0.370772
0.424967
0.481918
0.541011
0.602104
0.664803
0.72849
0.784575
0.826968
0.858657
0.88297
0.901464
0.914387
0.921771
0.924113
0.924485
0.924539
0.217463
0.24052
0.282018
0.335978
0.395851
0.458842
0.524198
0.59166
0.660686
0.730518
0.791732
0.837781
0.871968
0.897974
0.917682
0.93142
0.939358
0.942051
0.9426
0.942691
0.179577
0.203217
0.2475
0.305335
0.369913
0.438044
0.508843
0.581949
0.65669
0.732153
0.798057
0.847345
0.883676
0.911049
0.931629
0.946005
0.954398
0.957556
0.958259
0.958368
0.146375
0.170389
0.216794
0.277828
0.346328
0.418906
0.49452
0.572704
0.652674
0.733337
0.803559
0.855747
0.893881
0.922345
0.943604
0.958475
0.967199
0.970687
0.971505
0.971611
0.116407
0.14077
0.188848
0.252555
0.324429
0.400875
0.480789
0.563602
0.648409
0.733946
0.808212
0.863071
0.9028
0.932181
0.953932
0.969137
0.978063
0.98178
0.982652
0.982744
0.0887403
0.113438
0.162943
0.228882
0.303675
0.38353
0.467311
0.55436
0.643684
0.73385
0.812005
0.869426
0.91067
0.940904
0.963097
0.978546
0.987602
0.99142
0.992313
0.992355
0.0625779
0.087662
0.13851
0.206361
0.283688
0.366556
0.453826
0.544771
0.638333
0.732939
0.814919
0.874905
0.917684
0.948776
0.971426
0.987058
0.996181
1.00002
1.00098
1.001
0.0375618
0.0630761
0.114985
0.184636
0.264187
0.349746
0.440168
0.534698
0.632236
0.731137
0.816943
0.879587
0.924009
0.95604
0.979177
0.995005
1.00415
1.00793
1.00886
1.00887
0.0132819
0.0393468
0.0921942
0.163482
0.244989
0.332955
0.426231
0.524049
0.625314
0.728369
0.818056
0.883528
0.929764
0.962871
0.986575
1.00263
1.01179
1.01552
1.01632
1.01627
-0.0103951
0.0161439
0.0700616
0.142751
0.226
0.31611
0.411959
0.512785
0.617524
0.724594
0.818231
0.88675
0.935035
0.969381
0.993752
1.01006
1.01919
1.02278
1.02348
1.02335
-0.0335838
-0.00648398
0.0483984
0.122367
0.207183
0.299197
0.397345
0.500894
0.60885
0.71977
0.817408
0.889224
0.939843
0.975649
1.00078
1.01732
1.02634
1.02972
1.03026
1.03008
-0.0563809
-0.0286562
0.0271385
0.102309
0.188519
0.282227
0.382419
0.488411
0.599306
0.713866
0.815508
0.890871
0.944184
0.98173
1.00772
1.02445
1.03324
1.03631
1.0367
1.03647
-0.0787847
-0.0503736
0.00632584
0.0825901
0.170048
0.265241
0.367238
0.475389
0.588927
0.706864
0.812457
0.891592
0.948003
0.98768
1.01472
1.03152
1.03987
1.0425
1.04272
1.04246
-0.100629
-0.07157
-0.0140032
0.0632477
0.151813
0.24831
0.351868
0.461909
0.577779
0.698794
0.80819
0.891261
0.951172
0.993514
1.02194
1.03871
1.04626
1.04823
1.04825
1.04798
-0.121879
-0.0922062
-0.0338228
0.0443362
0.133875
0.231498
0.336405
0.448057
0.565952
0.689695
0.802665
0.889724
0.953506
0.999154
1.02963
1.0465
1.05271
1.05351
1.05322
1.05299
-0.142596
-0.112238
-0.0530932
0.025894
0.116301
0.214892
0.32094
0.433943
0.553546
0.679646
0.795846
0.886834
0.954747
1.00435
1.0379
1.05565
1.06021
1.05882
1.05767
1.05768
-0.162596
-0.131635
-0.0717512
0.00798884
0.0991503
0.198573
0.305571
0.419681
0.540685
0.668753
0.787743
0.882451
0.954586
1.00858
1.04642
1.06688
1.07092
1.06661
1.06292
1.06212
-0.181971
-0.150382
-0.0898102
-0.00940404
0.0823909
0.182495
0.290238
0.405212
0.5273
0.656943
0.778226
0.876307
0.952682
1.01116
1.05414
1.07985
1.08686
1.08235
1.07237
1.05628
-0.200641
-0.168466
-0.107387
-0.0264761
0.065732
0.166322
0.274525
0.390046
0.512841
0.64356
0.766615
0.867555
0.948361
1.01099
1.05863
1.09102
1.10204
1.09158
1.0731
1.05768
-0.218426
-0.18601
-0.124291
-0.0429948
0.0494807
0.150404
0.258656
0.374515
0.497631
0.628889
0.753049
0.855827
0.941034
1.007
1.0549
1.08708
1.10172
1.08167
1.01212
0.979887
-0.234659
-0.204197
-0.140197
-0.058373
0.0343625
0.135237
0.242933
0.358847
0.48189
0.613071
0.737509
0.840913
0.929557
0.998935
1.03879
1.06321
1.06188
1.01105
0.940738
0.897072
-0.29077
-0.2202
-0.154816
-0.0736625
0.0188901
0.1194
0.227297
0.342772
0.465267
0.595679
0.71945
0.822384
0.910443
0.986915
0.992536
1.00405
0.965137
0.899383
0.823149
0.780384
-0.251917
-0.235905
-0.176284
-0.0952412
-0.00362599
0.0966199
0.203482
0.31812
0.439342
0.567861
0.688936
0.789369
0.868786
0.946472
0.940866
0.835291
0.733262
0.662192
0.589449
0.623149
-0.283193
-0.253784
-0.193195
-0.112836
-0.021156
0.0787544
0.185791
0.299703
0.419716
0.546198
0.664101
0.760289
0.831831
0.87226
0.827506
0.684478
0.558619
0.468702
0.369911
0.423035
-0.307272
-0.274905
-0.213019
-0.132386
-0.0406335
0.0591206
0.166002
0.278986
0.397469
0.521362
0.635313
0.725698
0.787521
0.796077
0.693575
0.522133
0.369391
0.250355
0.119596
0.154118
-0.330837
-0.296885
-0.233779
-0.15228
-0.0603567
0.0392501
0.145576
0.25751
0.374273
0.495238
0.604434
0.688309
0.734807
0.712086
0.557
0.36063
0.16877
-0.0035368
-0.196124
-0.209831
-0.353738
-0.319345
-0.255326
-0.173072
-0.0809331
0.0184764
0.124133
0.23491
0.349715
0.467406
0.571287
0.647824
0.676631
0.619151
0.427306
0.215575
-0.00474619
-0.199696
-0.448543
-0.759324
-0.376903
-0.342503
-0.277933
-0.195164
-0.102794
-0.00352499
0.10154
0.21114
0.323901
0.438106
0.536494
0.604534
0.615248
0.507271
0.314935
0.103443
-0.104079
-0.280277
-0.348167
-0.435962
-0.401248
-0.3668
-0.30193
-0.218891
-0.126422
-0.0273773
0.0770079
0.185268
0.29568
0.405897
0.498362
0.556163
0.542342
0.400398
0.215788
0.0236829
-0.140957
-0.234772
-0.258865
-0.275518
-0.427089
-0.392552
-0.327479
-0.24433
-0.151936
-0.0532718
0.0502039
0.156829
0.264481
0.37007
0.456111
0.501028
0.468719
0.301143
0.126247
-0.0398774
-0.168369
-0.207209
-0.221363
-0.222658
-0.454624
-0.419914
-0.35463
-0.271458
-0.179266
-0.0811914
0.0211369
0.125802
0.230261
0.330637
0.409409
0.4402
0.391274
0.208636
0.0432639
-0.104972
-0.184703
-0.20136
-0.202748
-0.202629
-0.483892
-0.448886
-0.38339
-0.300248
-0.208401
-0.111095
-0.0101623
0.0922098
0.193054
0.287689
0.358237
0.378269
0.293854
0.123449
-0.0335999
-0.154456
-0.190128
-0.192342
-0.192863
-0.192358
-0.514593
-0.479402
-0.413631
-0.33059
-0.239223
-0.142891
-0.0436182
0.0561272
0.152929
0.24132
0.303221
0.306167
0.200472
0.0436868
-0.0957814
-0.172918
-0.183376
-0.186645
-0.187609
-0.187541
-0.546138
-0.510831
-0.445084
-0.362237
-0.271508
-0.176374
-0.0790231
0.0177525
0.110127
0.191818
0.245054
0.230062
0.114031
-0.026284
-0.145063
-0.172292
-0.184009
-0.185945
-0.185483
-0.185218
-0.578079
-0.542655
-0.477277
-0.394771
-0.304868
-0.211169
-0.116026
-0.0225421
0.0650358
0.139847
0.183081
0.154547
0.0278668
-0.0885349
-0.178229
-0.209123
-0.193403
-0.188135
-0.186987
-0.186357
-0.609553
-0.574312
-0.509319
-0.427525
-0.33872
-0.246737
-0.154087
-0.0641624
0.0182681
0.0862111
0.118986
0.0805275
-0.0603387
-0.145772
-0.18189
-0.189655
-0.196976
-0.199354
-0.198448
-0.197488
-0.63896
-0.604561
-0.540287
-0.459571
-0.372246
-0.282296
-0.192438
-0.106259
-0.0292067
0.0318313
0.0574643
-0.00169504
-0.15192
-0.230574
-0.204231
-0.229681
-0.226264
-0.217002
-0.214464
-0.213794
-0.664863
-0.631384
-0.569114
-0.489781
-0.404376
-0.316822
-0.230063
-0.147763
-0.0759138
-0.0220434
3.26446e-05
-0.0872421
-0.258655
-0.375354
-0.340326
-0.313643
-0.282725
-0.264085
-0.257083
-0.254372
-0.68522
-0.65352
-0.593646
-0.516748
-0.433793
-0.349085
-0.265692
-0.187372
-0.120128
-0.073469
-0.0542939
-0.156516
-0.354776
-0.622255
-0.636573
-0.492337
-0.414098
-0.382357
-0.361593
-0.350457
-0.69801
-0.668917
-0.612311
-0.538649
-0.458958
-0.377661
-0.297899
-0.223516
-0.160158
-0.11902
-0.101747
-0.187663
-0.3449
-0.650399
-0.766722
-0.557806
-0.497317
-0.475729
-0.455269
-0.449185
-0.700774
-0.675578
-0.623309
-0.553803
-0.478207
-0.401
-0.325132
-0.254493
-0.194378
-0.154637
-0.131159
-0.151926
-0.102496
-0.082576
-0.253834
-0.322413
-0.361705
-0.384462
-0.397343
-0.401417
-0.691885
-0.671309
-0.624684
-0.560716
-0.490103
-0.417587
-0.345867
-0.278628
-0.221373
-0.180752
-0.148991
-0.114396
0.110005
0.516925
0.36897
-0.118911
-0.398525
-0.425089
-0.428141
-0.428294
-0.669331
-0.65329
-0.614901
-0.558334
-0.493756
-0.426336
-0.358767
-0.294398
-0.239244
-0.200373
-0.17544
-0.209844
-0.241417
-0.0334336
-0.275121
-0.532423
-0.637295
-0.559338
-0.504141
-0.532751
-0.63495
-0.624178
-0.594477
-0.546922
-0.489123
-0.426939
-0.363042
-0.30068
-0.245151
-0.206498
-0.201621
-0.447478
-1.12792
-2.22205
-2.73977
-2.97031
-2.64065
-2.15809
-1.7085
-1.55398
-0.594108
-0.587856
-0.567541
-0.528815
-0.477876
-0.420079
-0.358634
-0.296275
-0.237449
-0.191709
-0.197426
-0.484991
-1.26127
-2.24218
-2.84079
-2.92422
-2.6379
-2.25424
-1.9057
-1.73457
-0.554512
-0.550961
-0.539451
-0.508989
-0.463065
-0.408006
-0.346897
-0.281314
-0.214692
-0.150548
-0.111283
-0.160112
-0.270631
-0.208665
-0.0528339
0.254183
0.561667
0.791455
0.944799
1.01337
-0.522989
-0.520844
-0.515011
-0.492118
-0.449763
-0.394435
-0.331011
-0.258898
-0.179882
-0.0896958
0.0139051
0.151698
0.458987
1.00402
1.64421
2.21146
2.62177
2.84926
2.9395
2.96343
-0.496562
-0.495788
-0.494316
-0.479776
-0.440767
-0.383448
-0.315224
-0.236866
-0.146152
-0.0424413
0.0793934
0.206136
0.495225
1.04738
1.64788
2.17349
2.54426
2.75899
2.85689
2.88405
-0.47768
-0.477395
-0.477404
-0.469151
-0.43445
-0.375197
-0.301918
-0.218436
-0.123823
-0.0163914
0.0925683
0.208898
0.391454
0.86108
1.35894
1.78228
2.09398
2.27389
2.35375
2.37527
-0.461146
-0.460379
-0.460251
-0.45744
-0.428323
-0.367751
-0.290476
-0.204237
-0.110874
-0.00786808
0.0914799
0.192816
0.314368
0.650788
1.03775
1.35234
1.58232
1.71073
1.76816
1.78422
-0.452352
-0.450941
-0.451121
-0.450366
-0.422738
-0.358543
-0.277346
-0.190094
-0.0992138
-0.00145045
0.08883
0.172747
0.260735
0.478273
0.752844
0.97326
1.13432
1.2266
1.26665
1.27622
-0.450289
-0.451645
-0.455579
-0.453291
-0.417617
-0.342989
-0.257117
-0.170975
-0.0853155
0.00266827
0.0794107
0.143324
0.199523
0.353867
0.539015
0.688012
0.796233
0.858455
0.886769
0.892956
-0.420587
-0.426128
-0.433666
-0.426836
-0.383422
-0.30599
-0.223324
-0.144483
-0.0691825
0.00599776
0.0718874
0.122428
0.169038
0.265236
0.393373
0.494697
0.566543
0.606173
0.622295
0.624917
-0.313632
-0.320161
-0.326691
-0.320256
-0.285594
-0.228939
-0.167591
-0.10648
-0.046813
0.0142369
0.0678724
0.107968
0.145478
0.208359
0.291506
0.358311
0.405183
0.43217
0.442499
0.442818
-0.153151
-0.156887
-0.161616
-0.161348
-0.148639
-0.125129
-0.0943947
-0.0590465
-0.0192904
0.0252408
0.0655352
0.0996124
0.131527
0.171219
0.222299
0.266938
0.297686
0.31477
0.322064
0.321793
-0.00879941
-0.0105455
-0.0148166
-0.0220347
-0.028597
-0.0306184
-0.0252411
-0.0122374
0.00889768
0.0374021
0.0671191
0.0951199
0.12072
0.145898
0.176181
0.204096
0.224455
0.236673
0.240963
0.239995
0.0807283
0.0798314
0.0756293
0.0651622
0.049385
0.0351519
0.0266781
0.0259013
0.0334804
0.0489709
0.0682363
0.0872723
0.105347
0.120065
0.138469
0.157579
0.171996
0.180037
0.18266
0.18132
0.120247
0.119609
0.116001
0.106218
0.0905205
0.0740245
0.0607282
0.0529597
0.0520641
0.0579282
0.0675479
0.0779002
0.0868226
0.0935415
0.106315
0.120579
0.131393
0.137234
0.138853
0.137452
0.130241
0.129711
0.126973
0.119562
0.107198
0.0930349
0.0801003
0.0704259
0.0652081
0.0644372
0.0655551
0.0661582
0.0646769
0.0659019
0.0765351
0.0893048
0.0988673
0.103541
0.104838
0.103643
0.126802
0.126383
0.124502
0.119533
0.110955
0.100416
0.0897932
0.0806829
0.0739137
0.0692769
0.0638448
0.0549034
0.044947
0.0453769
0.0573198
0.0690923
0.0766607
0.0800238
0.0807007
0.0796883
0.118732
0.118404
0.117178
0.114104
0.108635
0.101474
0.0936854
0.0863928
0.0800485
0.0740739
0.0653897
0.0508902
0.0346371
0.0358812
0.049147
0.0603832
0.0661689
0.0678293
0.0679909
0.0672987
0.110158
0.109906
0.109126
0.107334
0.104095
0.099634
0.0945284
0.0894987
0.0850267
0.0804674
0.0724295
0.0580494
0.042776
0.0474529
0.060291
0.0676514
0.0701846
0.0702235
0.0700619
0.0696917
0.102563
0.102383
0.101898
0.10089
0.0991305
0.0966215
0.0936907
0.0909656
0.0889673
0.0875991
0.0855193
0.0787133
0.0723071
0.0798624
0.0880834
0.0911718
0.0911992
0.0902629
0.0897877
0.0892406
0.0958947
0.0957845
0.0955018
0.0949262
0.094111
0.0929269
0.0917348
0.0911307
0.0921151
0.095774
0.102646
0.108847
0.114353
0.122385
0.124481
0.123579
0.122322
0.121847
0.121427
0.120762
0.089504
0.0894542
0.0893227
0.0889857
0.0885596
0.0883108
0.0883253
0.0893797
0.0930524
0.101724
0.11837
0.140416
0.160705
0.167272
0.162064
0.156615
0.155047
0.1555
0.155232
0.154264
0.0826492
0.0826544
0.0826588
0.0824971
0.0823225
0.0822786
0.0831442
0.0852846
0.0903816
0.102429
0.126337
0.161783
0.194739
0.197269
0.185196
0.178218
0.177421
0.178682
0.17789
0.176604
0.0747834
0.0748175
0.074918
0.0749043
0.074973
0.0752214
0.0758302
0.0783734
0.0834985
0.0956655
0.120357
0.158703
0.198762
0.201167
0.185982
0.180754
0.180527
0.182263
0.180784
0.179196
0.0655609
0.0656325
0.0658511
0.0661469
0.0661946
0.0664864
0.0670164
0.0685881
0.0723117
0.080826
0.0991039
0.130551
0.160733
0.160454
0.148947
0.14678
0.152284
0.154823
0.1532
0.151607
0.0545828
0.0546133
0.0547985
0.0552123
0.0555663
0.0559105
0.0564309
0.0568188
0.0579488
0.0602876
0.0640573
0.0721738
0.0797308
0.0780271
0.0792608
0.0879338
0.0952005
0.0974154
0.095749
0.0940874
0.0424645
0.0424011
0.042572
0.0429346
0.0437128
0.0445299
0.0450013
0.0447688
0.0434677
0.0381363
0.0243648
0.000335722
-0.0289131
-0.0259569
-0.00883343
0.00663334
0.0102573
0.0120171
0.0124588
0.0116776
0.0298632
0.0298236
0.0300482
0.0307409
0.0315457
0.0319178
0.0319438
0.0315119
0.0285679
0.0200111
-0.00318367
-0.0561028
-0.105818
-0.0968211
-0.070227
-0.0650811
-0.0717113
-0.0743642
-0.0713332
-0.0703644
0.0165806
0.0165037
0.0166695
0.0176297
0.0188498
0.019827
0.0203247
0.0201612
0.0173857
0.00952842
-0.0113045
-0.0563046
-0.0961113
-0.0883901
-0.0757551
-0.0851075
-0.105167
-0.111595
-0.10652
-0.102696
0.00383751
0.00363087
0.00329022
0.00272428
0.00210162
0.00175756
0.0018187
0.00219898
0.00245453
0.0028665
0.00454667
0.00365161
-0.0206036
-0.0235522
-0.0247045
-0.0321117
-0.0388945
-0.0378835
-0.0329014
-0.0279544
0.0403132
0.214277
0.417524
0.593348
0.734698
0.847091
0.940604
1.01972
1.05522
1.03203
0.35728
0.48251
0.616873
0.733288
0.831791
0.913639
0.97989
1.0268
1.0504
1.06232
0.584522
0.670212
0.76188
0.843178
0.913185
0.971769
1.0183
1.05225
1.07667
1.0945
0.750323
0.811131
0.875407
0.934235
0.98551
1.02901
1.06468
1.09306
1.11628
1.13449
0.879238
0.923727
0.970858
1.0158
1.05552
1.09015
1.11974
1.14431
1.16496
1.18275
0.985576
1.01927
1.05817
1.09448
1.12775
1.15752
1.1835
1.2053
1.22333
1.24065
1.07943
1.10859
1.1431
1.17569
1.20605
1.23356
1.25757
1.27749
1.29312
1.31019
1.16881
1.19831
1.23264
1.26497
1.29483
1.32163
1.34467
1.36329
1.37675
1.39379
1.26461
1.29797
1.33483
1.3686
1.39881
1.42513
1.4472
1.46456
1.47649
1.4939
1.3799
1.41785
1.4566
1.49097
1.52042
1.54525
1.5657
1.58164
1.59315
1.61123
1.52505
1.56367
1.59987
1.63062
1.65636
1.67851
1.69761
1.71318
1.72563
1.74364
1.70023
1.73191
1.75814
1.78062
1.80063
1.81938
1.83712
1.85362
1.86899
1.88706
1.88891
1.90614
1.92121
1.93747
1.95339
1.96794
1.98116
1.9951
2.01265
2.03281
2.07071
2.08022
2.09178
2.1026
2.11189
2.12149
2.13229
2.14366
2.15503
2.17039
2.27793
2.2816
2.26666
2.25186
2.24559
2.25128
2.26976
2.30008
2.33226
2.35892
2.58424
2.44939
2.37276
2.33041
2.31299
2.31696
2.34436
2.40077
2.5034
2.72776
0.871961
0.86983
0.865344
0.856713
0.844481
0.83234
0.822094
0.814171
0.808513
0.805204
0.80478
0.807446
0.81249
0.819667
0.829022
0.840538
0.853172
0.864195
0.8703
0.873349
0.796428
0.802273
0.808607
0.813092
0.815552
0.815214
0.812458
0.808621
0.805069
0.80275
0.802528
0.804647
0.808246
0.812485
0.816256
0.818112
0.817156
0.813659
0.808486
0.801861
0.788033
0.790328
0.793727
0.796716
0.79878
0.800261
0.800994
0.800645
0.799574
0.798627
0.798718
0.80006
0.801805
0.803054
0.80319
0.802266
0.800692
0.798337
0.79506
0.792134
0.782561
0.783647
0.785475
0.787844
0.789855
0.791266
0.792261
0.792975
0.793325
0.793475
0.79387
0.79458
0.795094
0.795093
0.794627
0.793736
0.792235
0.790125
0.788021
0.786632
0.777409
0.778072
0.779176
0.780872
0.78264
0.784253
0.785521
0.786495
0.787317
0.788023
0.788641
0.789075
0.789168
0.788918
0.788283
0.787174
0.785703
0.784125
0.782784
0.781999
0.772501
0.772961
0.773744
0.775033
0.776507
0.778003
0.779437
0.780689
0.781756
0.782712
0.783494
0.78392
0.783941
0.783561
0.782777
0.781716
0.780533
0.779356
0.778413
0.77789
0.767757
0.768102
0.76871
0.769771
0.771051
0.772404
0.77381
0.775206
0.776503
0.777668
0.778619
0.779136
0.779155
0.778742
0.778029
0.777159
0.776231
0.775307
0.774599
0.774215
0.76313
0.763397
0.763888
0.764791
0.76595
0.767225
0.768584
0.770017
0.771471
0.772856
0.774012
0.774666
0.774768
0.774473
0.773934
0.773252
0.772504
0.771787
0.771253
0.77096
0.758545
0.758757
0.759165
0.75996
0.761039
0.762265
0.763609
0.765078
0.766646
0.768243
0.769645
0.770506
0.770797
0.770699
0.770353
0.769855
0.769283
0.768735
0.768333
0.768103
0.753922
0.754091
0.75444
0.755165
0.756201
0.757405
0.758771
0.760308
0.762004
0.763815
0.765507
0.766668
0.767229
0.76737
0.767229
0.766916
0.766515
0.766114
0.765818
0.765635
0.749191
0.749326
0.749632
0.750314
0.751337
0.752564
0.753991
0.755641
0.757519
0.759593
0.761641
0.76318
0.764064
0.764473
0.764556
0.764431
0.764194
0.763926
0.763719
0.763573
0.744275
0.744381
0.744659
0.745324
0.746369
0.747665
0.749199
0.751018
0.753154
0.755583
0.758079
0.760063
0.761313
0.76202
0.762349
0.762421
0.762345
0.762201
0.762067
0.761952
0.739098
0.739179
0.739437
0.740109
0.741211
0.742616
0.744304
0.746348
0.748804
0.751678
0.75473
0.757256
0.758948
0.760009
0.760623
0.760922
0.761009
0.760988
0.760923
0.760833
0.73358
0.733637
0.733885
0.734584
0.735777
0.737333
0.739229
0.741565
0.744426
0.747857
0.751593
0.754783
0.757017
0.758504
0.759446
0.760007
0.760271
0.760374
0.760373
0.760307
0.727628
0.727663
0.727909
0.728651
0.729962
0.73171
0.733883
0.736604
0.739979
0.744088
0.748664
0.752684
0.75558
0.75758
0.758888
0.759719
0.760228
0.760474
0.760539
0.760491
0.721117
0.721124
0.721362
0.722167
0.723639
0.725647
0.728175
0.731388
0.735443
0.74045
0.746074
0.751055
0.754708
0.7573
0.759079
0.760248
0.761003
0.761396
0.76153
0.761503
0.71384
0.713831
0.714097
0.714972
0.716635
0.718934
0.721901
0.725708
0.730558
0.736609
0.743506
0.749723
0.754361
0.757706
0.760056
0.761668
0.762742
0.763317
0.763528
0.763519
0.70557
0.70553
0.705819
0.706817
0.708722
0.711417
0.714952
0.719547
0.725461
0.732878
0.741352
0.749009
0.754758
0.758962
0.761992
0.764163
0.765618
0.766418
0.766714
0.766719
0.695984
0.695921
0.696252
0.697402
0.699603
0.702792
0.707042
0.712624
0.719848
0.728938
0.739335
0.74876
0.755889
0.761166
0.765026
0.767843
0.769768
0.770843
0.771235
0.771249
0.684539
0.684452
0.684853
0.686209
0.688815
0.692667
0.697865
0.704739
0.713652
0.724836
0.737583
0.749115
0.757853
0.764375
0.769229
0.772828
0.775318
0.776704
0.777193
0.777208
0.670505
0.670397
0.670924
0.672606
0.675791
0.68058
0.687085
0.695694
0.706807
0.720635
0.73622
0.750217
0.760814
0.768773
0.774759
0.779211
0.782332
0.784048
0.784631
0.78464
0.652874
0.652746
0.653481
0.655673
0.659722
0.665853
0.674173
0.68512
0.699085
0.71619
0.735185
0.752061
0.764799
0.774378
0.781641
0.787075
0.790879
0.79293
0.7936
0.793599
0.630194
0.630059
0.631145
0.634143
0.639571
0.647725
0.658691
0.672887
0.690591
0.711764
0.734758
0.754892
0.770004
0.781366
0.790024
0.796525
0.801041
0.803418
0.804161
0.804146
0.600176
0.60007
0.601788
0.606203
0.613947
0.625324
0.640214
0.658877
0.68138
0.707456
0.735054
0.758812
0.77651
0.789829
0.799994
0.807667
0.812909
0.815585
0.816375
0.816335
0.55877
0.558832
0.561958
0.569302
0.581285
0.597941
0.618639
0.643326
0.671825
0.703653
0.736374
0.764017
0.78445
0.79982
0.811606
0.820519
0.826478
0.829369
0.830156
0.830082
0.498354
0.499583
0.507246
0.52105
0.540731
0.565702
0.59452
0.626882
0.662484
0.700759
0.738962
0.770631
0.793843
0.811303
0.824719
0.834881
0.841488
0.84447
0.845147
0.845028
0.426081
0.428008
0.442597
0.466438
0.497006
0.531708
0.569427
0.61003
0.653336
0.698854
0.743596
0.780461
0.807526
0.827998
0.843766
0.855539
0.863055
0.866348
0.867171
0.867177
0.351487
0.357946
0.379404
0.413401
0.454162
0.498409
0.545005
0.593903
0.645008
0.697908
0.749415
0.791712
0.822829
0.846546
0.865015
0.878708
0.887154
0.890158
0.890844
0.890967
0.290879
0.299425
0.325516
0.366482
0.415131
0.467458
0.522018
0.578643
0.637164
0.697117
0.755025
0.802395
0.837218
0.863725
0.884139
0.899089
0.907954
0.911679
0.912973
0.913175
0.241464
0.250577
0.280155
0.326185
0.380925
0.439762
0.501026
0.564448
0.629695
0.696193
0.760075
0.812084
0.850157
0.878928
0.900925
0.916995
0.926903
0.931347
0.9329
0.933136
0.200064
0.209395
0.241297
0.2912
0.350874
0.41511
0.482062
0.551407
0.622669
0.695132
0.764502
0.820713
0.861606
0.892272
0.915523
0.932472
0.943177
0.948184
0.949976
0.950247
0.16428
0.173674
0.207304
0.260322
0.324002
0.3928
0.464708
0.539294
0.615971
0.693891
0.768309
0.828327
0.87168
0.903898
0.928103
0.945748
0.957148
0.962617
0.964532
0.964817
0.132538
0.141937
0.176861
0.23247
0.29945
0.372163
0.448429
0.527719
0.609352
0.692322
0.771443
0.834954
0.880478
0.91399
0.93896
0.957141
0.968859
0.974707
0.976727
0.977028
0.103592
0.113019
0.149015
0.206755
0.276555
0.35266
0.432786
0.51634
0.602536
0.690243
0.77382
0.840642
0.88818
0.92286
0.948483
0.967006
0.97898
0.985037
0.987103
0.98741
0.0765889
0.0860635
0.123028
0.182586
0.25482
0.333879
0.417451
0.504881
0.595309
0.687495
0.775372
0.845427
0.894949
0.930765
0.957022
0.975875
0.98798
0.99416
0.996195
0.996466
0.050961
0.0605157
0.0983806
0.15946
0.233875
0.315532
0.402192
0.493155
0.587513
0.683954
0.776038
0.849349
0.900913
0.937931
0.964838
0.984018
0.996272
1.00242
1.00446
1.00464
0.026217
0.0359687
0.0745992
0.137132
0.213458
0.297419
0.386858
0.481039
0.579045
0.679534
0.775766
0.852436
0.906188
0.944533
0.972181
0.991713
1.00409
1.01021
1.01217
1.01235
0.00212651
0.012112
0.0515033
0.115427
0.193403
0.279418
0.371353
0.468464
0.569841
0.674176
0.774516
0.85469
0.910844
0.950696
0.979205
0.999157
1.01165
1.01772
1.01955
1.0197
-0.0213987
-0.0111804
0.0290289
0.094175
0.17364
0.261485
0.355646
0.455402
0.559875
0.667837
0.772238
0.85609
0.914907
0.956496
0.98601
1.00643
1.01901
1.02493
1.02662
1.02669
-0.0444953
-0.0339432
0.00697847
0.0733108
0.15413
0.243598
0.33974
0.441867
0.549157
0.660509
0.768874
0.856563
0.918351
0.961976
0.992667
1.01358
1.02617
1.03188
1.03334
1.03333
-0.0671244
-0.0562743
-0.0145785
0.0528254
0.134874
0.225784
0.323681
0.427908
0.537725
0.652192
0.764375
0.856012
0.92111
0.967152
0.999262
1.02068
1.03313
1.03846
1.03966
1.03957
-0.089318
-0.0781359
-0.035634
0.0327548
0.115908
0.208086
0.30752
0.413593
0.525642
0.642916
0.758705
0.854345
0.92307
0.971991
1.0059
1.02788
1.03995
1.04466
1.04552
1.04536
-0.110878
-0.0994376
-0.0561623
0.0131427
0.097286
0.190582
0.291331
0.399003
0.512989
0.63275
0.751855
0.851462
0.924068
0.976385
1.01269
1.03549
1.04688
1.05051
1.05086
1.05063
-0.131938
-0.120133
-0.0761266
-0.00597992
0.0790473
0.173317
0.275212
0.384226
0.499866
0.621787
0.743849
0.847258
0.923909
0.980113
1.01962
1.04396
1.05458
1.05636
1.05567
1.05532
-0.152322
-0.140187
-0.0954871
-0.0245571
0.0612747
0.156378
0.259247
0.369387
0.48639
0.610106
0.734739
0.841653
0.922379
0.982823
1.0264
1.05364
1.06434
1.06371
1.0606
1.05923
-0.172084
-0.159633
-0.114184
-0.0425303
0.0440099
0.139835
0.24352
0.35457
0.472679
0.597853
0.724617
0.834585
0.919283
0.984053
1.03228
1.06411
1.07742
1.0761
1.06893
1.05934
-0.191135
-0.178427
-0.132311
-0.0600493
0.027044
0.123405
0.22769
0.339364
0.458268
0.584502
0.712915
0.825426
0.914027
0.983206
1.03613
1.07395
1.09332
1.09468
1.08484
1.07675
-0.20942
-0.196482
-0.149862
-0.0770695
0.0103886
0.107084
0.211779
0.323753
0.443121
0.569948
0.699468
0.81384
0.905925
0.979519
1.03554
1.0777
1.1
1.10661
1.06958
1.01631
-0.226647
-0.213023
-0.166723
-0.0935197
-0.00605786
0.0907361
0.195742
0.307859
0.427303
0.554265
0.684231
0.799677
0.893994
0.972627
1.02848
1.0643
1.08757
1.07544
1.01856
0.954242
-0.243145
-0.22859
-0.182707
-0.108752
-0.021944
0.0748405
0.179353
0.291741
0.41096
0.537627
0.667234
0.782796
0.877143
0.963624
1.01311
1.06469
1.03393
0.99205
0.92246
0.854332
-0.229103
-0.211084
-0.162177
-0.0837167
0.00816732
0.108692
0.218512
0.333721
0.455832
0.585703
0.708868
0.811383
0.897574
0.989849
1.03627
0.956663
0.911025
0.848238
0.775538
0.727414
-0.253494
-0.237257
-0.20146
-0.13291