/*--------------------------------*- C++ -*----------------------------------*\
  =========                 |
  \\      /  F ield         | OpenFOAM: The Open Source CFD Toolbox
   \\    /   O peration     | Website:  https://openfoam.org
    \\  /    A nd           | Version:  9
     \\/     M anipulation  |
\*---------------------------------------------------------------------------*/
FoamFile
{
    format      ascii;
    class       surfaceScalarField;
    location    "37";
    object      phi;
}
// * * * * * * * * * * * * * * * * * * * * * * * * * * * * * * * * * * * * * //

dimensions      [0 3 -1 0 0 0 0];

internalField   nonuniform List<scalar> 
17370
(
-0.0916071
0.0960069
0.284611
-0.0775905
0.0594142
0.364952
-0.0430362
0.0316168
0.427587
-0.022312
0.0162579
0.505306
-0.0116623
0.00878569
0.602279
-0.00657245
0.005089
0.720541
-0.00385899
0.00298861
0.863777
-0.00222715
0.00165708
1.03602
-0.00113128
0.00071381
1.24292
-0.000305756
-8.84071e-05
1.49159
0.000473953
-0.000875924
1.49159
0.0012777
-0.00178544
1.2432
0.00234134
-0.00309116
1.03639
0.00395463
-0.00517864
0.864131
0.00665564
-0.00885943
0.721261
0.0117252
-0.016307
0.603796
0.0223479
-0.0316386
0.50873
0.0430431
-0.0594114
0.432536
0.0775893
-0.0960044
0.365191
0.0916194
0.197391
-0.127087
0.088017
0.0390697
-0.36435
0.354024
-0.0714797
0.081806
-0.446655
0.454246
-0.0791698
0.0715787
-0.521009
0.529105
-0.0637305
0.0556348
-0.612986
0.620757
-0.0482485
0.040478
-0.727159
0.73368
-0.0338643
0.0273431
-0.867579
0.872418
-0.0221439
0.0173048
-1.03856
1.04189
-0.0136229
0.0103003
-1.24471
1.24711
-0.00776
0.00536114
-1.49284
1.49485
-0.00340102
0.00139119
-1.49269
1.49451
0.000423946
-0.00223722
-1.24411
1.24602
0.00420716
-0.00611649
-1.03761
1.04009
0.00845494
-0.0109409
-0.866188
0.869828
0.0142094
-0.0178494
-0.724597
0.729759
0.0226474
-0.0278096
-0.609069
0.615643
0.034289
-0.0408628
-0.515127
0.522468
0.0485878
-0.0559292
-0.43988
0.447667
0.06396
-0.0717467
-0.374713
0.377359
0.0792528
-0.0818993
-0.256906
0.22445
0.071552
-0.0390967
-0.0687994
0.0591847
0.00961477
-0.0521251
0.0589613
-0.374831
0.367995
-0.0581179
0.0542795
-0.453939
0.457777
-0.0487941
0.0442354
-0.527606
0.532165
-0.0396851
0.0357899
-0.620788
0.624683
-0.0315816
0.0275976
-0.734648
0.738632
-0.0232599
0.0193921
-0.873944
0.877812
-0.0153658
0.0119216
-1.04335
1.04679
-0.00841331
0.00539009
-1.24864
1.25166
-0.00219275
-0.000779876
-1.49694
1.49991
0.00373149
-0.00687129
-1.49742
1.50056
0.00981485
-0.0132218
-1.25007
1.25348
0.0165703
-0.0204948
-1.04566
1.04958
0.0242787
-0.0285333
-0.877147
0.881402
0.0324447
-0.0365731
-0.738997
0.743125
0.040397
-0.0448752
-0.625987
0.630466
0.0493754
-0.0548046
-0.53503
0.540459
0.0585807
-0.0593502
-0.458091
0.45886
0.0524157
-0.0320445
-0.336787
0.316415
0.00966702
-0.068678
0.0590109
-0.0533919
0.0492777
0.00411428
-0.033265
0.0436987
-0.358537
0.348103
-0.0473819
0.0468007
-0.459561
0.460142
-0.043877
0.0406678
-0.53611
0.539319
-0.0369936
0.0336417
-0.628369
0.63172
-0.0300147
0.0267876
-0.742008
0.745235
-0.0233594
0.0201877
-0.88131
0.884482
-0.0166216
0.0132906
-1.05021
1.05354
-0.00961227
0.00622396
-1.25491
1.2583
-0.00244754
-0.00115939
-1.50325
1.50686
0.00473894
-0.00843492
-1.50406
1.50775
0.0117142
-0.0152501
-1.25705
1.26058
0.0184419
-0.0218562
-1.05329
1.05671
0.0249014
-0.0282066
-0.885011
0.888316
0.0313288
-0.0348434
-0.746814
0.750329
0.0380928
-0.0416569
-0.634595
0.638159
0.044772
-0.0475935
-0.54461
0.547432
0.0480717
-0.0442469
-0.456989
0.453164
0.0336421
-0.0163541
-0.297119
0.279831
0.00417103
-0.0531683
0.0489973
-0.0461038
0.0435452
0.00255858
-0.0230708
0.0334335
-0.337497
0.327134
-0.0391789
0.0401351
-0.459881
0.458925
-0.038889
0.0365626
-0.541963
0.544289
-0.0339209
0.0313784
-0.634672
0.637214
-0.0284144
0.0255904
-0.748313
0.751137
-0.0223883
0.019407
-0.887534
0.890515
-0.0160857
0.0129751
-1.0567
1.05981
-0.00944412
0.00606877
-1.26168
1.26505
-0.00218565
-0.00158914
-1.51058
1.51435
0.00532957
-0.00910782
-1.51153
1.51531
0.0123413
-0.015685
-1.26404
1.26739
0.0186102
-0.0217265
-1.05991
1.06303
0.024532
-0.0275608
-0.891513
0.894541
0.0302403
-0.0330529
-0.753517
0.756329
0.0354588
-0.0379558
-0.641129
0.643626
0.04016
-0.0412502
-0.549283
0.550373
0.0401356
-0.0341625
-0.448064
0.442091
0.0235526
-0.0103414
-0.264676
0.251465
0.0026288
-0.0457625
0.0431337
-0.0414225
0.0396192
0.00180332
-0.0169667
0.0262655
-0.317249
0.30795
-0.032876
0.0350077
-0.457347
0.455215
-0.0345837
0.0328942
-0.5463
0.547989
-0.0306755
0.0285585
-0.639502
0.641619
-0.0261397
0.0237882
-0.753726
0.756078
-0.0210111
0.0182989
-0.893367
0.896079
-0.0151493
0.0121463
-1.06284
1.06584
-0.00871656
0.00543454
-1.26835
1.27163
-0.00162936
-0.00209012
-1.5181
1.52182
0.00576575
-0.00943868
-1.51905
1.52272
0.0125406
-0.0157305
-1.27067
1.27386
0.018494
-0.0213769
-1.06607
1.06895
0.0238592
-0.0264083
-0.897332
0.899881
0.0285712
-0.0307978
-0.758775
0.761002
0.0327439
-0.0347788
-0.645869
0.647904
0.0362935
-0.0365054
-0.550974
0.551186
0.0341323
-0.027192
-0.435539
0.428598
0.0175645
-0.00742948
-0.239934
0.229799
0.00188887
-0.0409365
0.0390476
-0.0380656
0.036711
0.00135455
-0.0129652
0.0209772
-0.299294
0.291282
-0.0277604
0.0306941
-0.452641
0.449708
-0.0309092
0.0297906
-0.549405
0.550523
-0.027794
0.0258748
-0.64365
0.64557
-0.023683
0.0215748
-0.758305
0.760413
-0.0191168
0.0166977
-0.898608
0.901027
-0.0138313
0.011024
-1.06871
1.07151
-0.00774678
0.00457827
-1.27483
1.278
-0.000896293
-0.00269081
-1.52546
1.52905
0.00622255
-0.00973888
-1.52633
1.52985
0.012684
-0.0156638
-1.27698
1.27996
0.0181696
-0.0206933
-1.07167
1.0742
0.0228137
-0.0249747
-0.902197
0.904358
0.026839
-0.0287859
-0.763053
0.765
0.0304925
-0.0322737
-0.649791
0.651573
0.0331433
-0.0326345
-0.551048
0.550539
0.0293596
-0.0221285
-0.421458
0.414227
0.0136978
-0.00571257
-0.220842
0.212857
0.00145829
-0.037403
0.0359447
-0.035527
0.0344833
0.00104374
-0.010133
0.0169159
-0.283905
0.277122
-0.0234502
0.026855
-0.44651
0.443105
-0.0276631
0.0269936
-0.551399
0.552068
-0.0252527
0.0234957
-0.647435
0.649192
-0.0214717
0.0195098
-0.762461
0.764423
-0.0172027
0.0149323
-0.903323
0.905593
-0.0122572
0.00963401
-1.07417
1.07679
-0.00655014
0.0035391
-1.28106
1.28407
-1.66767e-05
-0.00341175
-1.53254
1.53596
0.00677322
-0.0100863
-1.53327
1.53659
0.0128182
-0.0155286
-1.28284
1.28555
0.0177747
-0.0200233
-1.0766
1.07884
0.0219186
-0.0238523
-0.906389
0.908323
0.025511
-0.0272318
-0.766798
0.768519
0.0287257
-0.030172
-0.653214
0.65466
0.0305285
-0.0293186
-0.549697
0.548487
0.025449
-0.018331
-0.40703
0.399912
0.0110262
-0.004564
-0.205706
0.199244
0.0011695
-0.0346499
0.0334804
-0.0335664
0.0327535
0.000812949
-0.00802563
0.013726
-0.270907
0.265207
-0.0197765
0.0233833
-0.439581
0.435975
-0.0246749
0.0242575
-0.552627
0.553045
-0.0227973
0.0211599
-0.650922
0.652559
-0.0192463
0.0173904
-0.766346
0.768202
-0.0152069
0.0130563
-0.907756
0.909906
-0.0105212
0.00804156
-1.07927
1.08175
-0.00513561
0.00229368
-1.28695
1.28979
0.00103785
-0.0042879
-1.53929
1.54254
0.00745308
-0.010529
-1.53979
1.54287
0.0130252
-0.0154706
-1.28816
1.2906
0.0174869
-0.0194961
-1.081
1.08301
0.0211804
-0.0228919
-0.910136
0.911847
0.0243607
-0.0258937
-0.770107
0.77164
0.0272093
-0.0283056
-0.655907
0.657003
0.0283193
-0.0264751
-0.546972
0.545128
0.0222531
-0.0154591
-0.392955
0.386161
0.00911417
-0.00375493
-0.193387
0.188028
0.00096584
-0.0324284
0.0314626
-0.032039
0.0314044
0.000634597
-0.00639521
0.0111659
-0.259997
0.255226
-0.0166244
0.0202402
-0.432359
0.428744
-0.0218692
0.0216874
-0.553376
0.553558
-0.0204695
0.0189015
-0.654206
0.655774
-0.0170585
0.0152694
-0.770036
0.771826
-0.0131677
0.0111018
-0.911942
0.914007
-0.00866763
0.00628914
-1.0841
1.08648
-0.00350826
0.000809087
-1.29251
1.29521
0.00232391
-0.00535032
-1.54565
1.54867
0.00827319
-0.0110961
-1.54582
1.54864
0.0133752
-0.0155976
-1.29297
1.29519
0.0174159
-0.0192121
-1.08493
1.08673
0.0207051
-0.0222119
-0.913456
0.914963
0.0235075
-0.0248726
-0.773071
0.774436
0.0260511
-0.0267635
-0.657893
0.658606
0.026424
-0.0240704
-0.543059
0.540706
0.0196646
-0.0132784
-0.379588
0.373201
0.00771799
-0.00317185
-0.183119
0.178572
0.000819555
-0.030584
0.0297645
-0.0308506
0.0303612
0.000489359
-0.00507154
0.00903054
-0.250886
0.246927
-0.0138383
0.0173044
-0.425206
0.42174
-0.0191348
0.0191749
-0.553661
0.55362
-0.0181986
0.016711
-0.65736
0.658848
-0.0149336
0.0131894
-0.773602
0.775346
-0.0111287
0.00910194
-0.915973
0.918
-0.00672468
0.00441847
-1.08873
1.09104
-0.00174199
-0.000835325
-1.29778
1.30036
0.00380875
-0.00665258
-1.55157
1.55442
0.00936898
-0.0119587
-1.55135
1.55394
0.0140204
-0.0160068
-1.29734
1.29933
0.017617
-0.0192018
-1.08845
1.09004
0.0205179
-0.02185
-0.91639
0.917722
0.0229941
-0.0241828
-0.775686
0.776875
0.0251713
-0.0255052
-0.659103
0.659437
0.0248051
-0.0220376
-0.538171
0.535403
0.0175681
-0.0116104
-0.36705
0.361092
0.00668515
-0.00274855
-0.174367
0.17043
0.000715478
-0.02901
0.0282946
-0.0299418
0.0295758
0.000366044
-0.00395277
0.0071909
-0.243353
0.240115
-0.0113279
0.0145228
-0.418427
0.415232
-0.0164068
0.0166034
-0.553549
0.553353
-0.0157209
0.0143185
-0.660359
0.661761
-0.0125583
0.0108264
-0.77708
0.778812
-0.00879276
0.00681089
-0.919906
0.921888
-0.00450393
0.00227769
-1.0932
1.09543
0.000291818
-0.00276251
-1.30282
1.30529
0.00558689
-0.0082549
-1.55714
1.5598
0.0107677
-0.0131232
-1.55642
1.55877
0.0149652
-0.0167094
-1.30124
1.30298
0.0181023
-0.0194511
-1.09154
1.09289
0.0205578
-0.0216767
-0.918956
0.920075
0.0226481
-0.0236635
-0.77796
0.778976
0.024418
-0.0245031
-0.659636
0.659721
0.0234337
-0.0203507
-0.532508
0.529425
0.0158969
-0.0103418
-0.355368
0.349813
0.00592193
-0.00244241
-0.166758
0.163278
0.000642005
-0.0276314
0.0269894
-0.0292733
0.0290182
0.000255083
-0.00295554
0.00553016
-0.237232
0.234657
-0.00898715
0.0118287
-0.412243
0.409401
-0.0136668
0.0139691
-0.553172
0.552869
-0.0131618
0.0118342
-0.663211
0.664539
-0.0100839
0.00834518
-0.780527
0.782266
-0.00630562
0.00432607
-0.923738
0.925718
-0.00203596
-0.000154397
-1.09752
1.09971
0.00267112
-0.00505072
-1.30763
1.31001
0.00772904
-0.0102152
-1.56234
1.56482
0.0125111
-0.0146181
-1.561
1.56311
0.0162254
-0.0177122
-1.30464
1.30613
0.0188741
-0.0199782
-1.09416
1.09526
0.0208774
-0.0217911
-0.921123
0.922036
0.0225974
-0.0234366
-0.779885
0.780724
0.0239435
-0.0237574
-0.659638
0.659452
0.0223388
-0.0189845
-0.526241
0.522887
0.014578
-0.00938018
-0.344475
0.339277
0.00536122
-0.00222496
-0.160006
0.15687
0.000592442
-0.0263888
0.0257963
-0.0288241
0.0286772
0.000146955
-0.0020134
0.00395256
-0.232424
0.230485
-0.0067064
0.00910539
-0.406817
0.404418
-0.0107801
0.0111214
-0.552628
0.552287
-0.0103907
0.009141
-0.665921
0.667171
-0.00740936
0.00564775
-0.783976
0.785738
-0.00356254
0.00154377
-0.927575
0.929594
0.000769147
-0.00296011
-1.10179
1.10398
0.00543379
-0.00774256
-1.31227
1.31458
0.0103019
-0.012633
-1.56718
1.56951
0.0147322
-0.0165942
-1.56509
1.56695
0.0179723
-0.0192101
-1.30755
1.30878
0.0201569
-0.0210433
-1.09632
1.09721
0.0217511
-0.0224434
-0.922882
0.923574
0.0230166
-0.0235904
-0.781412
0.781986
0.0237494
-0.0232744
-0.659044
0.658569
0.0215083
-0.0179097
-0.519455
0.515857
0.0135629
-0.00867014
-0.334281
0.329389
0.0049643
-0.00208069
-0.1539
0.151017
0.000563738
-0.025238
0.0246743
-0.0285879
0.028552
3.59231e-05
-0.00107452
0.00238163
-0.228884
0.227577
-0.00440309
0.00627713
-0.402323
0.400449
-0.00765403
0.00791525
-0.552085
0.551824
-0.00717261
0.00592806
-0.668523
0.669768
-0.00415764
0.00235072
-0.787468
0.789275
-0.000228182
-0.00180787
-0.931466
0.933502
0.00412445
-0.00630616
-1.10604
1.10822
0.00875144
-0.0110033
-1.31677
1.31902
0.0134468
-0.0156046
-1.5717
1.57385
0.0174759
-0.0190662
-1.56866
1.57025
0.0201645
-0.0210755
-1.30992
1.31083
0.0217196
-0.0222829
-1.09798
1.09854
0.0227105
-0.0231316
-0.924178
0.924599
0.0235102
-0.0239055
-0.782464
0.782859
0.0237732
-0.0229506
-0.657776
0.656953
0.020855
-0.0170741
-0.512242
0.508462
0.0127986
-0.00815858
-0.324694
0.320054
0.00469269
-0.00198987
-0.148274
0.145571
0.000548269
-0.0241425
0.0235942
-0.028573
0.0286471
-7.40479e-05
-9.85581e-05
0.000768351
-0.226609
0.225939
-0.00203716
0.00333627
-0.39891
0.397611
-0.00434518
0.0044676
-0.551782
0.551659
-0.00366799
0.00238279
-0.671175
0.672461
-0.000551872
-0.00131867
-0.79103
0.792901
0.00350905
-0.00560304
-0.935375
0.937469
0.00798064
-0.0102033
-1.11027
1.11249
0.0126652
-0.0148942
-1.32115
1.32338
0.0172517
-0.0192543
-1.57586
1.57786
0.0209125
-0.0222336
-1.57169
1.57301
0.0230713
-0.0236747
-1.31166
1.31226
0.0240309
-0.0242706
-1.09899
1.09923
0.0243927
-0.0244945
-0.924914
0.925016
0.0246198
-0.0246801
-0.783007
0.783067
0.0242976
-0.0230674
-0.655795
0.654564
0.0206085
-0.0165925
-0.504689
0.500673
0.0123341
-0.0078672
-0.31559
0.311123
0.00456088
-0.00196325
-0.142977
0.14038
0.000552208
-0.0230712
0.022519
-0.0287887
0.0290024
-0.000213652
0.000894427
-0.000932409
-0.225632
0.22567
0.000490574
0.000149135
-0.396684
0.396044
-0.000690958
0.000618882
-0.551815
0.551887
0.000241773
-0.00156758
-0.673917
0.675243
0.00346282
-0.0054464
-0.794721
0.796704
0.00779901
-0.0100466
-0.939439
0.941687
0.0125735
-0.0148991
-1.1146
1.11693
0.0174206
-0.0196444
-1.32549
1.32771
0.0219206
-0.0237648
-1.57971
1.58156
0.0251742
-0.0261706
-1.57414
1.57514
0.0266792
-0.0269244
-1.31275
1.31299
0.0269619
-0.0268729
-1.09936
1.09927
0.0267118
-0.0264989
-0.925006
0.924793
0.0262977
-0.025965
-0.782774
0.782441
0.0252313
-0.0234664
-0.653033
0.651268
0.0206132
-0.0163742
-0.496704
0.492465
0.0121175
-0.00776026
-0.306825
0.302468
0.00454232
-0.00198505
-0.137869
0.135312
0.000568972
-0.0219889
0.0214199
-0.0292817
0.0296368
-0.000355055
0.00204121
-0.002758
-0.226024
0.22674
0.00322285
-0.00337608
-0.395826
0.395979
0.00348686
-0.00391472
-0.552392
0.55282
0.00494407
-0.00640333
-0.676794
0.678253
0.00844393
-0.0105721
-0.798631
0.800759
0.0130853
-0.015469
-0.943783
0.946167
0.0181307
-0.0205556
-1.11912
1.12155
0.0231503
-0.02539
-1.32981
1.33205
0.027611
-0.0293161
-1.58324
1.58495
0.0304909
-0.0311456
-1.57593
1.57658
0.0313196
-0.031145
-1.31309
1.31291
0.0307865
-0.0302646
-1.099
1.09848
0.0297243
-0.029118
-0.924378
0.923772
0.0285641
-0.0278083
-0.781696
0.78094
0.0266044
-0.0242797
-0.649285
0.64696
0.0210487
-0.0165631
-0.488321
0.483836
0.0122325
-0.00787673
-0.298257
0.293901
0.00465403
-0.0020593
-0.132818
0.130223
0.000598168
-0.0208707
0.0202726
-0.0300722
0.030608
-0.000535774
0.00330855
-0.00482231
-0.227878
0.229392
0.00621276
-0.00718177
-0.396515
0.397484
0.00803768
-0.00893181
-0.553814
0.554708
0.0102699
-0.0119636
-0.680032
0.681726
0.0142493
-0.0165926
-0.802835
0.805179
0.0193303
-0.02191
-0.948384
0.950964
0.0247746
-0.0273671
-1.12384
1.12643
0.0301025
-0.0324081
-1.33418
1.33648
0.0345887
-0.0361225
-1.58647
1.58801
0.037021
-0.0372913
-1.577
1.57727
0.0370771
-0.0364544
-1.31253
1.31191
0.035652
-0.0346463
-1.0977
1.09669
0.0336764
-0.0326199
-0.92289
0.921834
0.0317144
-0.0304529
-0.779695
0.778433
0.0287747
-0.0258895
-0.64453
0.641645
0.0221864
-0.017327
-0.479427
0.474568
0.012801
-0.00830373
-0.28965
0.285153
0.00494968
-0.00220826
-0.127655
0.124914
0.000645325
-0.0196911
0.0190458
-0.0312312
0.0319892
-0.000758065
0.00478735
-0.00716273
-0.23133
0.233705
0.00958238
-0.0114327
-0.398876
0.400727
0.0130962
-0.0145114
-0.55626
0.557675
0.0162105
-0.0181791
-0.683803
0.685771
0.0207868
-0.0234504
-0.807488
0.810151
0.0265596
-0.0294792
-0.953416
0.956335
0.0326986
-0.0355742
-1.12892
1.1318
0.0385478
-0.0409716
-1.33867
1.3411
0.043143
-0.0445153
-1.58934
1.59072
0.0451126
-0.0449682
-1.57727
1.57713
0.0443029
-0.0431914
-1.31102
1.30991
0.0419368
-0.0404303
-1.09537
1.09387
0.0390054
-0.0374592
-0.920427
0.918881
0.036114
-0.0342588
-0.776652
0.774796
0.032
-0.0284291
-0.638656
0.635085
0.0241697
-0.0188395
-0.469797
0.464466
0.0139794
-0.00914445
-0.280707
0.275872
0.00548511
-0.00245199
-0.122149
0.119116
0.000713987
-0.0184138
0.0176998
-0.0328272
0.033862
-0.00103476
0.00654268
-0.00990456
-0.236502
0.239864
0.0134967
-0.0163704
-0.403123
0.405996
0.0189758
-0.0210414
-0.559901
0.561967
0.023251
-0.0256214
-0.688221
0.690591
0.0287036
-0.0318379
-0.812807
0.815941
0.0354819
-0.0388736
-0.959172
0.962564
0.0425546
-0.0457679
-1.13459
1.1378
0.0489939
-0.0515225
-1.34339
1.34592
0.0536491
-0.0548002
-1.59186
1.59301
0.055018
-0.0543486
-1.57666
1.57599
0.0531645
-0.0514647
-1.30844
1.30674
0.0497096
-0.0476773
-1.09197
1.08993
0.0457859
-0.0437304
-0.916895
0.914839
0.0418352
-0.0393642
-0.772433
0.769962
0.0364574
-0.0321666
-0.631463
0.627173
0.0272865
-0.0213271
-0.459239
0.45328
0.0159117
-0.0104712
-0.271006
0.265565
0.0062968
-0.00280902
-0.115997
0.112509
0.00081248
-0.0169907
0.0161782
-0.034962
0.0363678
-0.00140583
0.00880418
-0.0133602
-0.243618
0.248174
0.0182976
-0.0223164
-0.409555
0.413574
0.0260175
-0.0289435
-0.565136
0.568062
0.03196
-0.0350082
-0.69364
0.696688
0.0388135
-0.0425835
-0.819096
0.822866
0.0468703
-0.050782
-0.96587
0.969782
0.0549413
-0.0584888
-1.14091
1.14445
0.0619408
-0.0645234
-1.34825
1.35084
0.066512
-0.0673316
-1.59385
1.59467
0.0670427
-0.0657338
-1.57491
1.5736
0.0639245
-0.0615208
-1.30461
1.3022
0.0591358
-0.056469
-1.0874
1.08473
0.0540672
-0.0514898
-0.912234
0.909657
0.0490503
-0.0459318
-0.76697
0.763852
0.0423742
-0.0372986
-0.622875
0.617799
0.0316391
-0.0247865
-0.447407
0.440554
0.018543
-0.0122195
-0.260018
0.253695
0.00733603
-0.00325485
-0.108891
0.10481
0.000932965
-0.0153679
0.0144349
-0.0378122
0.0397527
-0.00194051
0.0119501
-0.0180495
-0.253062
0.259161
0.0245945
-0.0299134
-0.418533
0.423852
0.0348343
-0.0387628
-0.572439
0.576367
0.0427808
-0.0467409
-0.7006
0.704561
0.0515065
-0.0560551
-0.826666
0.831214
0.0610898
-0.0655854
-0.973597
0.978093
0.0702715
-0.0741741
-1.14787
1.15177
0.0778472
-0.080444
-1.35319
1.35578
0.0822027
-0.082574
-1.5951
1.59547
0.0816648
-0.0795789
-1.5718
1.56972
0.0770186
-0.073796
-1.29929
1.29607
0.070683
-0.0672668
-1.08142
1.07801
0.0642433
-0.0610848
-0.906413
0.903255
0.05809
-0.0543496
-0.760204
0.756464
0.0500104
-0.0439132
-0.61266
0.606563
0.0371998
-0.0291281
-0.433748
0.425677
0.021764
-0.0142886
-0.247211
0.239735
0.00853063
-0.00375573
-0.100576
0.0958012
0.00106693
-0.0135041
0.0124371
-0.0416881
0.0444592
-0.00277118
0.0166165
-0.0247887
-0.265509
0.273682
0.0333368
-0.0402056
-0.430629
0.437498
0.0465405
-0.0515904
-0.582172
0.587222
0.056794
-0.0618889
-0.709489
0.714584
0.0677485
-0.073184
-0.835777
0.841212
0.0790723
-0.0842211
-0.982499
0.987647
0.0894564
-0.0936755
-1.1555
1.15972
0.0974613
-0.0999262
-1.35806
1.36053
0.101266
-0.100995
-1.59533
1.59506
0.0992879
-0.0962749
-1.56704
1.56403
0.0928649
-0.0887134
-1.29224
1.28809
0.0847794
-0.080521
-1.07387
1.06961
0.0768087
-0.0729508
-0.899208
0.89535
0.0692271
-0.0645741
-0.752032
0.747379
0.0591967
-0.0517773
-0.600278
0.592859
0.0437508
-0.0341569
-0.417648
0.408054
0.025389
-0.0165226
-0.232107
0.223241
0.00976937
-0.00425204
-0.0908992
0.0853819
0.00119262
-0.0113867
0.0101941
-0.0471548
0.0513596
-0.00420486
0.0240286
-0.0350907
-0.282128
0.29319
0.0463162
-0.0553198
-0.446838
0.455841
0.0633975
-0.0697729
-0.59471
0.601085
0.0764247
-0.0828182
-0.72058
0.726974
0.0898947
-0.0962292
-0.846633
0.852967
0.102895
-0.108551
-0.992648
0.998304
0.114084
-0.118319
-1.16362
1.16786
0.121819
-0.123756
-1.36248
1.36441
0.124224
-0.122905
-1.59408
1.59276
0.12002
-0.115761
-1.56026
1.556
0.111301
-0.106115
-1.28326
1.27807
0.101319
-0.0961676
-1.06451
1.05936
0.0916595
-0.0869011
-0.89029
0.885532
0.0823131
-0.0765302
-0.741779
0.735996
0.0698761
-0.0608804
-0.585144
0.576149
0.0512637
-0.0397872
-0.398475
0.386998
0.0293085
-0.0188342
-0.214308
0.203833
0.0109885
-0.00470675
-0.0798178
0.073536
0.00129529
-0.00904291
0.00774762
-0.0552945
0.06257
-0.00727545
0.0374239
-0.0528457
-0.305123
0.320545
0.0678917
-0.0797263
-0.468713
0.480547
0.0897128
-0.0975475
-0.610531
0.618365
0.105833
-0.11346
-0.734042
0.741669
0.121459
-0.128281
-0.859071
0.865892
0.135164
-0.140728
-1.00355
1.00912
0.145847
-0.149396
-1.17144
1.17498
0.151852
-0.152541
-1.36546
1.36615
0.151404
-0.148382
-1.59037
1.58735
0.143752
-0.137756
-1.55072
1.54473
0.131858
-0.125306
-1.27205
1.26549
0.119454
-0.113344
-1.0533
1.04719
0.108075
-0.102471
-0.879372
0.873768
0.0970718
-0.0901551
-0.729008
0.722091
0.0821942
-0.0712954
-0.566695
0.555796
0.0595793
-0.0457741
-0.375371
0.361566
0.0333833
-0.0212043
-0.19352
0.181341
0.0121947
-0.00512092
-0.0674108
0.060337
0.00136744
-0.00653232
0.00516488
-0.0694228
0.0734028
-0.00398006
0.0282424
-0.0415456
-0.338536
0.351839
0.0549107
-0.0655926
-0.497545
0.508227
0.0752033
-0.0844577
-0.629692
0.638946
0.0949737
-0.104236
-0.749102
0.758365
0.114533
-0.123708
-0.871912
0.881087
0.133379
-0.141812
-1.01372
1.02215
0.150344
-0.157333
-1.17736
1.18435
0.163775
-0.168286
-1.36555
1.37006
0.171278
-0.171765
-1.58294
1.58342
0.169642
-0.165378
-1.53746
1.5332
0.160116
-0.153431
-1.25792
1.25124
0.147134
-0.139848
-1.04002
1.03273
0.133673
-0.127157
-0.866612
0.860096
0.120785
-0.111869
-0.713697
0.704781
0.100215
-0.084567
-0.543889
0.528241
0.068498
-0.050323
-0.347357
0.329182
0.0350891
-0.0210819
-0.169593
0.155586
0.0114221
-0.00447673
-0.0539616
0.0470162
0.00107953
-0.00397578
0.00289626
-0.0804552
0.0784547
0.00200048
0.0063537
-0.0148607
-0.368
0.376507
0.0249383
-0.0326389
-0.523594
0.531295
0.0405937
-0.0487433
-0.650578
0.658727
0.0584983
-0.067392
-0.767482
0.776376
0.0767864
-0.0853154
-0.889784
0.898313
0.0942253
-0.101644
-1.03028
1.03769
0.109329
-0.115282
-1.19111
1.19706
0.120726
-0.124268
-1.37422
1.37776
0.126034
-0.125592
-1.58302
1.58258
0.122676
-0.117722
-1.52809
1.52314
0.111705
-0.104211
-1.24399
1.23649
0.0970356
-0.0888916
-1.02469
1.01654
0.081267
-0.0725173
-0.850742
0.841992
0.0640406
-0.0542594
-0.690875
0.681094
0.0443075
-0.0326464
-0.509886
0.498225
0.0225673
-0.0136216
-0.310516
0.301571
0.00780203
-0.00364013
-0.142186
0.138024
0.00144658
-0.000349971
-0.0406128
0.0395162
2.37045e-05
-0.00177199
0.00174828
-0.0815468
0.0785907
0.00295604
-0.00269368
-0.00192218
-0.387628
0.392244
0.00857729
-0.0143469
-0.542959
0.548728
0.0205776
-0.0276335
-0.668698
0.675754
0.0361021
-0.0438656
-0.784507
0.792271
0.0522906
-0.0597577
-0.906133
0.9136
0.0673127
-0.0739793
-1.04493
1.0516
0.0807305
-0.0861113
-1.20262
1.208
0.0907002
-0.0936005
-1.38076
1.38366
0.0951852
-0.0946043
-1.58171
1.58113
0.0917571
-0.0870404
-1.51794
1.51322
0.081345
-0.0742903
-1.22914
1.22208
0.0668712
-0.0581981
-1.00769
0.99902
0.0494843
-0.0391047
-0.831349
0.820969
0.0294382
-0.0191972
-0.666914
0.656673
0.0106767
-0.00243145
-0.484322
0.476076
-0.00262019
0.00521252
-0.291354
0.288761
-0.00562103
0.00470067
-0.132435
0.133355
-0.00327012
0.00163235
-0.0378608
0.0394986
-0.000512262
-0.00150385
0.00201611
-0.0800835
0.0772631
0.00282036
-0.00616569
0.00420451
-0.400323
0.402284
-0.000247665
-0.00410694
-0.557471
0.561826
0.00943942
-0.0153339
-0.68367
0.689564
0.0225469
-0.0292234
-0.79952
0.806196
0.0364445
-0.0428684
-0.92056
0.926984
0.0497796
-0.0555379
-1.05787
1.06363
0.0616256
-0.0661148
-1.21308
1.21757
0.0703555
-0.0730929
-1.38653
1.38927
0.0745174
-0.0737632
-1.5804
1.57965
0.0712215
-0.0668516
-1.50825
1.50388
0.0613722
-0.0540733
-1.21485
1.20755
0.0466173
-0.0376903
-0.989627
0.9807
0.0285176
-0.0181289
-0.809297
0.798908
0.0084985
0.000723029
-0.643415
0.634193
-0.00740119
0.0123187
-0.466217
0.461299
-0.0140712
0.0133085
-0.283156
0.283919
-0.0112404
0.00813605
-0.13258
0.135684
-0.00530579
0.00249438
-0.040269
0.0430804
-0.00074909
-0.00221509
0.00296418
-0.07841
0.0759507
0.00245927
-0.00709446
0.00668644
-0.408521
0.408929
-0.00387319
0.000865719
-0.569046
0.572053
0.00336423
-0.00861019
-0.696106
0.701352
0.0145757
-0.0203972
-0.812224
0.818045
0.0266374
-0.0322472
-0.932991
0.938601
0.0382733
-0.0435451
-1.06932
1.07459
0.0489158
-0.053284
-1.22204
1.2264
0.0572227
-0.0597876
-1.39181
1.39438
0.0611183
-0.0603298
-1.57887
1.57808
0.0577823
-0.0532143
-1.49887
1.4943
0.0477365
-0.0406066
-1.20012
1.19299
0.0332403
-0.0243963
-0.971236
0.962392
0.0158211
-0.00632543
-0.787818
0.778322
-0.00186073
0.00931836
-0.623305
0.615847
-0.014116
0.0172697
-0.453989
0.450835
-0.0179218
0.0160004
-0.28079
0.282711
-0.0129383
0.00925879
-0.1369
0.14058
-0.00595961
0.00275006
-0.0449334
0.0481429
-0.000828734
-0.00340739
0.00423612
-0.0769182
0.0748394
0.0020788
-0.00677674
0.00680929
-0.413918
0.413885
-0.00537107
0.00298895
-0.57768
0.580062
0.000948003
-0.00532538
-0.706428
0.710805
0.0103551
-0.0153477
-0.823091
0.828084
0.0208798
-0.025938
-0.943904
0.948962
0.0315629
-0.0363334
-1.07966
1.08443
0.0413681
-0.0455026
-1.23059
1.23473
0.0491972
-0.0515924
-1.39678
1.39917
0.0527585
-0.0522137
-1.57722
1.57668
0.0495567
-0.0451213
-1.48924
1.4848
0.0397219
-0.0328281
-1.18562
1.17873
0.026098
-0.0178807
-0.953462
0.945245
0.0102251
-0.00213876
-0.768707
0.760621
-0.00470585
0.0108612
-0.607093
0.600938
-0.0147894
0.017195
-0.445391
0.442985
-0.0172602
0.0152917
-0.280896
0.282864
-0.0124522
0.0088447
-0.142335
0.145943
-0.00563171
0.0026252
-0.050086
0.0530925
-0.000801402
-0.00468642
0.00548783
-0.0758294
0.074237
0.00159237
-0.00568319
0.00595796
-0.417803
0.417528
-0.0048683
0.00318783
-0.585062
0.586742
0.000397553
-0.00424715
-0.715138
0.718988
0.00892696
-0.0131718
-0.832686
0.836931
0.0180343
-0.0225746
-0.954031
0.958571
0.028009
-0.0324688
-1.08929
1.09375
0.0371067
-0.0411463
-1.23875
1.24279
0.0450711
-0.0473539
-1.40163
1.40391
0.0485603
-0.0479171
-1.57572
1.57508
0.0456062
-0.0411001
-1.48011
1.4756
0.0361533
-0.0299169
-1.17172
1.16548
0.0237217
-0.0166575
-0.937253
0.930188
0.0100412
-0.00307324
-0.752412
0.745444
-0.00238761
0.00751573
-0.59371
0.588582
-0.0108822
0.012814
-0.438266
0.436335
-0.0131405
0.0119061
-0.281609
0.282843
-0.00967666
0.00683569
-0.147324
0.150165
-0.00434293
0.00204262
-0.0546148
0.0569151
-0.000640486
-0.00583437
0.00647485
-0.0753042
0.0740812
0.001223
-0.00441315
0.00470469
-0.420871
0.42058
-0.00365552
0.00204436
-0.591353
0.592964
0.00124876
-0.00457522
-0.722787
0.726113
0.00850019
-0.0125631
-0.841122
0.845184
0.0170612
-0.0217694
-0.962961
0.967669
0.0265435
-0.0308791
-1.09835
1.10269
0.0356987
-0.039534
-1.24676
1.25059
0.0430018
-0.0456708
-1.40612
1.40878
0.047001
-0.0465741
-1.57445
1.57403
0.0443841
-0.0404705
-1.47126
1.46734
0.0359598
-0.0302994
-1.15902
1.15335
0.02484
-0.0186249
-0.923178
0.916963
0.0129215
-0.00709877
-0.73862
0.732798
0.00211811
0.00234685
-0.582512
0.578047
-0.00527093
0.00722355
-0.432086
0.430134
-0.00782291
0.00714781
-0.2814
0.282075
-0.00585683
0.0040903
-0.150625
0.152391
-0.00259699
0.00124152
-0.0576925
0.0590479
-0.000411652
-0.00663988
0.00705153
-0.0753557
0.0743589
0.000996756
-0.00298219
0.00293707
-0.423738
0.423783
-0.00199625
0.000396034
-0.597126
0.598726
0.00267317
-0.00585964
-0.729748
0.732935
0.00958728
-0.0132372
-0.849039
0.852689
0.0178562
-0.0218092
-0.971844
0.975797
0.026579
-0.0307561
-1.10721
1.11139
0.0354727
-0.0394929
-1.25443
1.25845
0.0432115
-0.0456206
-1.41121
1.41362
0.0472227
-0.0471369
-1.5735
1.57341
0.0455507
-0.0419755
-1.46331
1.45973
0.0379881
-0.0329069
-1.14785
1.14277
0.0280713
-0.0224961
-0.910661
0.905085
0.0175498
-0.0122992
-0.726781
0.721531
0.00786918
-0.00369364
-0.572774
0.568599
0.00066636
0.00134186
-0.426078
0.42407
-0.00229486
0.00233047
-0.280025
0.279989
-0.0020691
0.00146372
-0.151888
0.152494
-0.000951443
0.000518321
-0.0589734
0.0594065
-0.000197536
-0.00702083
0.00721837
-0.0757263
0.0750535
0.000672751
-0.00173189
0.00122646
-0.426891
0.427397
-0.000412461
-0.00154002
-0.602136
0.604088
0.00427069
-0.00734332
-0.736182
0.739254
0.0109126
-0.0147003
-0.856221
0.860009
0.0187275
-0.0228498
-0.979981
0.984103
0.0275883
-0.0315565
-1.116
1.11997
0.0363437
-0.0402884
-1.26228
1.26623
0.0440175
-0.0468961
-1.41642
1.4193
0.0489224
-0.0490774
-1.57334
1.5735
0.0477277
-0.0448848
-1.45632
1.45348
0.0414939
-0.0368871
-1.1376
1.13299
0.032444
-0.0275947
-0.899504
0.894655
0.0227927
-0.0181719
-0.716048
0.711427
0.014113
-0.0100958
-0.563973
0.559956
0.0072015
-0.00475963
-0.419973
0.417531
0.00330564
-0.00229448
-0.277417
0.276405
0.00161379
-0.000959136
-0.151019
0.150364
0.000403035
-2.10944e-05
-0.0585583
0.0581763
-7.28631e-05
-0.00695161
0.00702448
-0.076534
0.0760211
0.000512883
-0.000701787
0.000254747
-0.430421
0.430868
0.00133585
-0.00316153
-0.607461
0.609287
0.0060905
-0.00908182
-0.742161
0.745152
0.0125325
-0.0159493
-0.863499
0.866916
0.0201166
-0.0239366
-0.988253
0.992073
0.0286201
-0.0330001
-1.12439
1.12877
0.0373999
-0.0416291
-1.27021
1.27444
0.0457209
-0.0486421
-1.42207
1.42499
0.0509905
-0.0518913
-1.57385
1.57476
0.0509768
-0.0487706
-1.45051
1.4483
0.0456278
-0.0415385
-1.12842
1.12434
0.0375752
-0.0329935
-0.889438
0.884856
0.0286578
-0.02425
-0.706298
0.70189
0.0203756
-0.0163505
-0.555382
0.551357
0.0132056
-0.0104183
-0.413509
0.410722
0.00820351
-0.00628764
-0.27311
0.271194
0.00462147
-0.00291202
-0.147958
0.146248
0.00156752
-0.000533429
-0.0566053
0.0555712
7.57249e-05
-0.00656051
0.00648478
-0.0776188
0.0772936
0.000325277
0.000403837
-0.0011615
-0.43415
0.434908
0.00262922
-0.00481188
-0.612488
0.614671
0.00772415
-0.0106096
-0.748
0.750885
0.0141845
-0.0174831
-0.870344
0.873643
0.0215177
-0.0254636
-0.996386
1.00033
0.0300402
-0.0343623
-1.13301
1.13733
0.0389426
-0.0431553
-1.27858
1.2828
0.0473809
-0.0509971
-1.42818
1.4318
0.0537458
-0.0549171
-1.57558
1.57675
0.0546809
-0.0528045
-1.44598
1.44411
0.050228
-0.0466867
-1.12018
1.11664
0.0428212
-0.0385019
-0.879996
0.875676
0.034384
-0.0299871
-0.697076
0.692679
0.0262474
-0.0221124
-0.547053
0.542918
0.0187747
-0.0153791
-0.406425
0.403029
0.0126049
-0.00980219
-0.26715
0.264347
0.00717136
-0.00457513
-0.142942
0.140346
0.00256228
-0.000975408
-0.0534563
0.0518694
0.000196979
-0.00593014
0.00573316
-0.0789314
0.0787345
0.000196868