/*--------------------------------*- C++ -*----------------------------------*\
  =========                 |
  \\      /  F ield         | OpenFOAM: The Open Source CFD Toolbox
   \\    /   O peration     | Website:  https://openfoam.org
    \\  /    A nd           | Version:  9
     \\/     M anipulation  |
\*---------------------------------------------------------------------------*/
FoamFile
{
    format      ascii;
    class       volScalarField;
    location    "18";
    object      p;
}
// * * * * * * * * * * * * * * * * * * * * * * * * * * * * * * * * * * * * * //

dimensions      [0 2 -2 0 0 0 0];

internalField   nonuniform List<scalar> 
8800
(
0.403117
0.355339
0.316666
0.287686
0.266837
0.25202
0.241432
0.233949
0.229097
0.226946
0.228026
0.232011
0.238465
0.247624
0.260284
0.277931
0.302645
0.336538
0.379041
0.437739
0.234346
0.242026
0.249532
0.252855
0.251372
0.246321
0.239863
0.233806
0.229069
0.22615
0.225717
0.228018
0.2323
0.238057
0.244669
0.25083
0.254382
0.253595
0.248102
0.23937
0.212715
0.218889
0.223043
0.226026
0.228114
0.228759
0.227684
0.225585
0.223526
0.2225
0.22326
0.225414
0.227996
0.229983
0.230424
0.229093
0.226642
0.223165
0.218566
0.214794
0.206858
0.209527
0.212347
0.21483
0.21654
0.217757
0.218535
0.218669
0.218339
0.218157
0.218684
0.21959
0.220169
0.220004
0.219197
0.217927
0.215949
0.213236
0.210749
0.209243
0.201447
0.202888
0.204766
0.206921
0.208829
0.210276
0.211329
0.212135
0.2127
0.213124
0.21351
0.213697
0.213503
0.212939
0.21197
0.210465
0.208535
0.20649
0.205075
0.204252
0.196374
0.197302
0.198696
0.200468
0.202301
0.204006
0.20543
0.206561
0.207494
0.208224
0.208602
0.20855
0.208119
0.207283
0.206014
0.204446
0.202777
0.201226
0.200267
0.19974
0.191628
0.192284
0.19345
0.195053
0.196758
0.198484
0.200143
0.201576
0.202712
0.203576
0.204057
0.204022
0.203458
0.202419
0.20108
0.199628
0.198135
0.196815
0.196075
0.195717
0.187269
0.187744
0.188749
0.190225
0.191801
0.193371
0.194947
0.196523
0.197963
0.199104
0.199652
0.199528
0.198892
0.197959
0.196858
0.195606
0.194272
0.193124
0.192535
0.192289
0.183377
0.183681
0.184578
0.185987
0.187526
0.189096
0.190657
0.192141
0.193556
0.194804
0.195556
0.195681
0.195335
0.194606
0.193607
0.192451
0.191224
0.190184
0.189722
0.189586
0.180438
0.180601
0.181294
0.182517
0.183893
0.185314
0.186808
0.188387
0.189957
0.191399
0.192374
0.192695
0.192495
0.191957
0.19121
0.190322
0.189326
0.188533
0.188235
0.188176
0.178133
0.178231
0.178644
0.179446
0.180444
0.181567
0.182828
0.184256
0.185838
0.187469
0.188752
0.189448
0.189678
0.189602
0.189299
0.188852
0.188354
0.187978
0.187838
0.187797
0.175471
0.175557
0.175826
0.176346
0.177097
0.178093
0.179353
0.180879
0.182655
0.184574
0.186226
0.187274
0.187816
0.18795
0.187907
0.187859
0.187752
0.187661
0.187601
0.187559
0.171973
0.172043
0.172275
0.172692
0.173361
0.174242
0.175474
0.177082
0.179069
0.181361
0.183469
0.184946
0.185851
0.186473
0.186803
0.187023
0.187155
0.187191
0.187168
0.187129
0.167696
0.16774
0.167991
0.168487
0.169166
0.170177
0.171584
0.173425
0.175771
0.178527
0.181201
0.183197
0.184539
0.185424
0.186026
0.186406
0.186625
0.186696
0.186707
0.186677
0.162838
0.162869
0.163137
0.163749
0.164628
0.165739
0.167392
0.169562
0.172344
0.17575
0.179122
0.18173
0.183571
0.184826
0.18566
0.186189
0.186448
0.186562
0.18661
0.186589
0.157449
0.157477
0.15775
0.15844
0.15954
0.160916
0.162861
0.16545
0.168819
0.173019
0.177269
0.180614
0.183037
0.184733
0.185831
0.186529
0.186905
0.187102
0.187186
0.187166
0.15143
0.151459
0.151774
0.152531
0.153733
0.155465
0.157805
0.160964
0.165119
0.17034
0.175668
0.179916
0.182974
0.185132
0.186629
0.187577
0.188138
0.188449
0.188566
0.188541
0.144472
0.144504
0.144905
0.14575
0.147152
0.149209
0.152074
0.155984
0.161155
0.167669
0.17434
0.179684
0.183575
0.186351
0.18823
0.189468
0.19024
0.190671
0.19082
0.190787
0.136174
0.136215
0.136679
0.137734
0.139453
0.141965
0.145513
0.150407
0.156884
0.16503
0.173357
0.180019
0.184917
0.18836
0.190734
0.192323
0.193332
0.19389
0.194077
0.194035
0.126123
0.126177
0.126779
0.128091
0.130245
0.133411
0.137908
0.144089
0.152234
0.162427
0.172789
0.181064
0.1871
0.19137
0.194327
0.19632
0.197595
0.198292
0.198524
0.19847
0.113778
0.113848
0.114634
0.116342
0.119128
0.123204
0.128966
0.136837
0.147133
0.159886
0.172721
0.182905
0.190317
0.195573
0.199221
0.201693
0.203277
0.204138
0.204421
0.204353
0.0983856
0.0984871
0.0995393
0.101816
0.105508
0.110858
0.118358
0.128493
0.141554
0.15747
0.173275
0.185721
0.194762
0.201184
0.205659
0.208708
0.210669
0.21172
0.212061
0.211974
0.078789
0.0789336
0.0803986
0.0835639
0.0886218
0.0958312
0.105781
0.118945
0.135525
0.155297
0.174606
0.189684
0.200622
0.20842
0.213891
0.217649
0.220086
0.22139
0.221797
0.221685
0.0531935
0.0534253
0.0556032
0.0602553
0.0674598
0.0774761
0.0909151
0.108135
0.129156
0.153545
0.176896
0.194965
0.208078
0.217486
0.224155
0.228794
0.231828
0.23345
0.233938
0.233792
0.0185677
0.019023
0.0226398
0.0300282
0.0408331
0.055214
0.0736365
0.0962089
0.122694
0.152449
0.180322
0.201696
0.217237
0.228503
0.236618
0.242374
0.2462
0.248237
0.248818
0.248622
-0.031055
-0.0295059
-0.0221457
-0.00916853
0.00792658
0.0290316
0.0543272
0.0836506
0.116567
0.152308
0.185044
0.209929
0.228086
0.241423
0.251245
0.258411
0.263328
0.266002
0.26673
0.266458
-0.105182
-0.0963031
-0.0794494
-0.056339
-0.0297878
0.000277841
0.0339619
0.0710644
0.111137
0.153439
0.191512
0.220348
0.241575
0.257472
0.269559
0.278831
0.285559
0.289484
0.290703
0.290645
-0.184449
-0.164419
-0.137427
-0.103968
-0.0677487
-0.028596
0.0135633
0.0586353
0.106283
0.155906
0.200381
0.234278
0.2596
0.27899
0.294182
0.306237
0.315473
0.321884
0.324269
0.324368
-0.24769
-0.225155
-0.189983
-0.148252
-0.103503
-0.0559641
-0.00573386
0.0470112
0.101935
0.15848
0.208841
0.247193
0.275954
0.298124
0.315605
0.329582
0.340399
0.347903
0.349943
0.350307
-0.299015
-0.274404
-0.234386
-0.186748
-0.135399
-0.0809569
-0.0237392
0.0359163
0.0975215
0.160416
0.216007
0.258078
0.289461
0.313518
0.332362
0.347344
0.358878
0.366662
0.369145
0.369574
-0.340885
-0.315471
-0.271974
-0.219863
-0.163318
-0.103309
-0.0402264
0.0254186
0.0929674
0.161552
0.221731
0.266852
0.300151
0.325404
0.344989
0.360414
0.372176
0.379971
0.38269
0.383069
-0.376505
-0.350634
-0.304686
-0.248949
-0.188186
-0.123506
-0.0553949
0.0154843
0.0883189
0.162032
0.226281
0.274012
0.308867
0.334996
0.354991
0.37051
0.382232
0.389989
0.392863
0.393238
-0.407807
-0.381708
-0.333867
-0.275142
-0.210843
-0.142139
-0.0696478
0.00589179
0.0835178
0.161952
0.230038
0.280212
0.316449
0.343263
0.363523
0.379043
0.390688
0.398306
0.401297
0.401659
-0.436255
-0.409949
-0.360552
-0.299328
-0.232
-0.159797
-0.0834002
-0.00363572
0.0784277
0.161335
0.233082
0.285586
0.323161
0.350673
0.371234
0.386825
0.398435
0.405916
0.408953
0.409314
-0.462685
-0.436191
-0.385469
-0.322091
-0.252113
-0.176826
-0.0969478
-0.0133524
0.0728299
0.159981
0.235345
0.290305
0.329364
0.357703
0.378656
0.394384
0.406002
0.413322
0.416329
0.416776
-0.487792
-0.461046
-0.409112
-0.343852
-0.271541
-0.193529
-0.110539
-0.0234517
0.0665633
0.15786
0.236968
0.29456
0.335267
0.364587
0.386065
0.402025
0.413686
0.420931
0.423832
0.424289
-0.51184
-0.484813
-0.431767
-0.364919
-0.29052
-0.210074
-0.124289
-0.0340112
0.0596274
0.154976
0.23789
0.298331
0.340943
0.371455
0.393636
0.40996
0.421748
0.428954
0.431713
0.432096
-0.535173
-0.507764
-0.453838
-0.385444
-0.309175
-0.226568
-0.138263
-0.0450697
0.0519368
0.151178
0.23799
0.301559
0.346406
0.378375
0.401451
0.41828
0.430274
0.437464
0.44006
0.440345
-0.557831
-0.529976
-0.475349
-0.405523
-0.327605
-0.243078
-0.152518
-0.0566937
0.0434026
0.146394
0.237184
0.304139
0.351559
0.385299
0.4095
0.426987
0.439281
0.446475
0.44894
0.44907
-0.579883
-0.551711
-0.496261
-0.425198
-0.345828
-0.259597
-0.167055
-0.0688938
0.0340379
0.140579
0.235339
0.305933
0.356265
0.392142
0.417745
0.436067
0.448731
0.455911
0.458236
0.458215
-0.601406
-0.572814
-0.51663
-0.444467
-0.363826
-0.276104
-0.181827
-0.0816002
0.0238647
0.133683
0.232333
0.306749
0.360373
0.398795
0.426129
0.445473
0.458574
0.465704
0.467833
0.467677
-0.622443
-0.593363
-0.536463
-0.463318
-0.381555
-0.292544
-0.196764
-0.0947584
0.0129184
0.125693
0.228065
0.30638
0.36364
0.405093
0.434591
0.455183
0.468737
0.475732
0.477576
0.477301
-0.642814
-0.613287
-0.555711
-0.481706
-0.398962
-0.308841
-0.211798
-0.108286
0.00127802
0.11665
0.22245
0.304629
0.365758
0.410769
0.443043
0.465237
0.479174
0.485792
0.487242
0.486849
-0.662492
-0.632547
-0.574356
-0.499576
-0.415987
-0.324935
-0.226834
-0.122087
-0.010956
0.106605
0.215455
0.301318
0.366417
0.415458
0.451328
0.475842
0.490145
0.495821
0.496547
0.496058
-0.681537
-0.6511
-0.592362
-0.516893
-0.432572
-0.340742
-0.24178
-0.136049
-0.0236766
0.0956555
0.20708
0.296319
0.365276
0.418617
0.459036
0.487234
0.502508
0.506303
0.505257
0.504666
-0.699793
-0.668938
-0.609676
-0.533596
-0.44866
-0.356184
-0.256542
-0.150059
-0.036751
0.0839313
0.197389
0.289548
0.362049
0.419536
0.465259
0.49915
0.517771
0.519998
0.514844
0.512936
-0.717348
-0.686059
-0.626327
-0.549711
-0.464283
-0.371309
-0.271177
-0.164175
-0.0502438
0.0713681
0.186273
0.280774
0.356436
0.417388
0.46838
0.509964
0.536105
0.542722
0.533654
0.512717
-0.734147
-0.702473
-0.642433
-0.565416
-0.479719
-0.386429
-0.28608
-0.178863
-0.0646878
0.0573108
0.173027
0.269103
0.347598
0.410947
0.465118
0.51428
0.547828
0.553499
0.537799
0.512999
-0.750045
-0.718362
-0.65783
-0.580464
-0.494693
-0.401214
-0.30103
-0.193795
-0.0797522
0.0420894
0.157877
0.254398
0.335164
0.399757
0.450885
0.500429
0.531599
0.52697
0.456632
0.41506
-0.764462
-0.734725
-0.672159
-0.594297
-0.508524
-0.415213
-0.315749
-0.208758
-0.0952177
0.0258665
0.140871
0.236615
0.318474
0.384329
0.426224
0.456384
0.472712
0.42875
0.353222
0.304133
-0.817615
-0.748484
-0.685145
-0.608332
-0.522591
-0.429759
-0.330298
-0.223993
-0.11139
0.00829309
0.121589
0.215478
0.295192
0.366267
0.376143
0.385612
0.356868
0.291167
0.20707
0.159802
-0.777538
-0.762659
-0.703627
-0.628244
-0.542768
-0.450447
-0.352189
-0.24706
-0.136277
-0.019404
0.089752
0.179137
0.249566
0.31422
0.317637
0.201181
0.0875441
0.00936592
-0.0722809
-0.0290572
-0.805883
-0.778214
-0.719006
-0.643522
-0.558562
-0.466661
-0.3684
-0.264208
-0.154958
-0.0406474
0.0645983
0.148868
0.211721
0.244417
0.192201
0.0309905
-0.116325
-0.22061
-0.335634
-0.267307
-0.827351
-0.796438
-0.736637
-0.66077
-0.575972
-0.484301
-0.386362
-0.283279
-0.175843
-0.0645954
0.0360893
0.114002
0.166752
0.170388
0.0525517
-0.156875
-0.339677
-0.480528
-0.646417
-0.58635
-0.84787
-0.815478
-0.754811
-0.678265
-0.593404
-0.501955
-0.404698
-0.302827
-0.197365
-0.0894966
0.00593232
0.076867
0.115669
0.0809799
-0.102462
-0.346507
-0.582054
-0.794907
-1.03537
-1.02532
-0.86728
-0.834797
-0.773494
-0.696365
-0.611425
-0.520253
-0.423763
-0.323178
-0.219884
-0.115682
-0.0260148
0.037492
0.0594444
-0.0163178
-0.252056
-0.520092
-0.801008
-1.05419
-1.36915
-1.7355
-0.886683
-0.854482
-0.792881
-0.715424
-0.630399
-0.539461
-0.44365
-0.344348
-0.243267
-0.142869
-0.0591296
-0.00353616
0.00113405
-0.125687
-0.384389
-0.655619
-0.934396
-1.17074
-1.26708
-1.41483
-0.906713
-0.874852
-0.813225
-0.735699
-0.650697
-0.560067
-0.464998
-0.367104
-0.268487
-0.172306
-0.0949269
-0.0483527
-0.0670728
-0.247807
-0.500587
-0.754268
-0.979326
-1.11938
-1.14726
-1.17498
-0.92772
-0.896175
-0.834645
-0.757196
-0.67236
-0.582162
-0.488012
-0.391747
-0.295928
-0.204487
-0.133951
-0.0980593
-0.146125
-0.362138
-0.605339
-0.833753
-1.01301
-1.0866
-1.10379
-1.10746
-0.949868
-0.918424
-0.857141
-0.779832
-0.695265
-0.605651
-0.512587
-0.418172
-0.325476
-0.239271
-0.17609
-0.152717
-0.228509
-0.471827
-0.703083
-0.91072
-1.0557
-1.08256
-1.07996
-1.07903
-0.973057
-0.941633
-0.880689
-0.803536
-0.719325
-0.63041
-0.53858
-0.446216
-0.356906
-0.276359
-0.22112
-0.210299
-0.315208
-0.578649
-0.797572
-0.971038
-1.04633
-1.06259
-1.06343
-1.06266
-0.997017
-0.965701
-0.904964
-0.82815
-0.744356
-0.656248
-0.565786
-0.475633
-0.389895
-0.315282
-0.268663
-0.267685
-0.414392
-0.683339
-0.895205
-1.00593
-1.04656
-1.04877
-1.05173
-1.05244
-1.02121
-0.990248
-0.929724
-0.853345
-0.770088
-0.68287
-0.593863
-0.506034
-0.423931
-0.355404
-0.317239
-0.329802
-0.510685
-0.784346
-1.01883
-1.04778
-1.0463
-1.05877
-1.0599
-1.05891
-1.04514
-1.01474
-0.954731
-0.878751
-0.796072
-0.709827
-0.622331
-0.536849
-0.458312
-0.395817
-0.365259
-0.397157
-0.59326
-0.86705
-1.21001
-1.28362
-1.18574
-1.10556
-1.06986
-1.06264
-1.06816
-1.03825
-0.979388
-0.903806
-0.821756
-0.736542
-0.65053
-0.567285
-0.492086
-0.435031
-0.411044
-0.457395
-0.661867
-0.887025
-1.2909
-1.53853
-1.287
-1.13409
-1.06433
-1.04341
-1.08931
-1.06033
-1.00252
-0.927776
-0.846522
-0.762237
-0.677612
-0.596303
-0.524039
-0.471026
-0.453603
-0.509591
-0.702921
-0.763836
-0.756667
-1.08022
-1.22801
-1.34618
-1.30645
-1.28863
-1.10745
-1.07991
-1.02351
-0.949768
-0.869371
-0.786084
-0.702616
-0.622703
-0.552576
-0.501924
-0.491674
-0.552246
-0.778557
-0.703403
-0.0954173
-0.265704
-0.989921
-1.32734
-1.3629
-1.37734
-1.1215
-1.09585
-1.04144
-0.968818
-0.889312
-0.806944
-0.724376
-0.645225
-0.575672
-0.526221
-0.521757
-0.592673
-1.02825
-1.52048
-1.89526
-2.38992
-2.47273
-2.06363
-1.73546
-1.70883
-1.13027
-1.10715
-1.05515
-0.9839
-0.905321
-0.823732
-0.74169
-0.662523
-0.591488
-0.540483
-0.534947
-0.661706
-1.38725
-2.63003
-3.96554
-4.51741
-4.42752
-3.91056
-3.29908
-2.99415
-1.13295
-1.11271
-1.06367
-0.99415
-0.916409
-0.835438
-0.753483
-0.673197
-0.59886
-0.539677
-0.522912
-0.632448
-1.35559
-2.40757
-3.59832
-4.10852
-3.95949
-3.45868
-2.98229
-2.75931
-1.12813
-1.11137
-1.06636
-0.998553
-0.921803
-0.8413
-0.758993
-0.676785
-0.596519
-0.523077
-0.473317
-0.453905
-0.715195
-0.930052
-0.965599
-0.836473
-0.513598
-0.189769
0.0394977
0.141019
-1.11538
-1.10188
-1.06149
-0.996644
-0.920688
-0.840739
-0.75836
-0.673887
-0.586448
-0.493462
-0.398335
-0.328255
-0.118708
0.312005
0.858813
1.45005
1.88322
2.14002
2.26324
2.29768
-1.09427
-1.08447
-1.04907
-0.98714
-0.912262
-0.833864
-0.752432
-0.666633
-0.572331
-0.46096
-0.339056
-0.2176
0.017339
0.636046
1.33689
1.94247
2.38244
2.6392
2.75569
2.78814
-1.06405
-1.05761
-1.02721
-0.968278
-0.896334
-0.820849
-0.74254
-0.65868
-0.562925
-0.441744
-0.301397
-0.161455
0.0074203
0.521841
1.1163
1.61029
1.96088
2.16825
2.2713
2.30602
-1.02053
-1.01679
-0.991951
-0.938423
-0.871797
-0.802183
-0.73124
-0.655662
-0.566205
-0.443197
-0.282981
-0.130432
-0.00233471
0.328584
0.757715
1.11623
1.38846
1.55736
1.64938
1.6825
-0.960474
-0.95754
-0.938607
-0.894602
-0.837603
-0.778996
-0.721619
-0.662229
-0.588732
-0.478152
-0.311305
-0.133247
0.0358329
0.19153
0.437998
0.670019
0.860582
0.986368
1.05204
1.07282
-0.880413
-0.87831
-0.865743
-0.836013
-0.795687
-0.754335
-0.716171
-0.680763
-0.640675
-0.564913
-0.420082
-0.222905
-0.0452483
0.0730276
0.223648
0.383005
0.506768
0.592975
0.644585
0.655211
-0.805089
-0.803217
-0.795976
-0.779824
-0.757544
-0.73588
-0.720756
-0.71722
-0.728508
-0.746222
-0.673797
-0.467874
-0.250584
-0.153184
-0.0420135
0.0893183
0.198522
0.271849
0.306695
0.313253
-0.749399
-0.748544
-0.745864
-0.739526
-0.731836
-0.728946
-0.739854
-0.780167
-0.878844
-1.06339
-1.15572
-0.905912
-0.593618
-0.432663
-0.310305
-0.178071
-0.0671985
0.00659833
0.0419582
0.0442653
-0.705219
-0.705954
-0.706276
-0.706349
-0.709859
-0.723562
-0.760651
-0.85069
-1.06364
-1.48424
-1.84925
-1.55826
-1.0648
-0.789142
-0.600476
-0.418019
-0.281588
-0.197267
-0.165089
-0.1663
-0.652099
-0.653977
-0.656598
-0.661123
-0.672304
-0.697658
-0.754146
-0.881542
-1.18188
-1.80264
-2.34838
-2.06251
-1.45532
-1.10147
-0.834024
-0.614828
-0.466121
-0.388798
-0.364536
-0.365678
-0.577662
-0.579967
-0.583773
-0.590659
-0.604906
-0.634313
-0.695282
-0.828425
-1.13764
-1.76667
-2.26144
-1.9661
-1.49036
-1.17017
-0.886419
-0.700589
-0.602266
-0.566397
-0.553904
-0.551757
-0.481809
-0.483917
-0.487674
-0.494321
-0.507077
-0.532016
-0.581848
-0.688547
-0.932062
-1.41136
-1.75919
-1.57283
-1.26295
-0.980401
-0.776286
-0.665384
-0.640355
-0.639649
-0.634805
-0.630987
-0.373988
-0.375426
-0.378245
-0.382809
-0.391338
-0.407199
-0.43777
-0.501134
-0.641521
-0.913314
-1.10653
-0.995457
-0.803466
-0.627181
-0.541482
-0.53359
-0.552972
-0.56576
-0.566565
-0.564629
-0.267648
-0.268327
-0.269906
-0.272176
-0.276062
-0.282766
-0.295054
-0.319378
-0.370551
-0.464863
-0.531594
-0.460131
-0.367151
-0.32451
-0.342327
-0.380157
-0.406473
-0.419073
-0.422112
-0.421896
-0.174133
-0.174245
-0.174859
-0.175511
-0.176172
-0.176652
-0.177011
-0.177549
-0.178979
-0.177283
-0.159701
-0.121753
-0.113738
-0.153703
-0.19996
-0.238042
-0.259859
-0.270207
-0.274401
-0.275163
-0.0996741
-0.0994861
-0.0996012
-0.0995096
-0.0987025
-0.0964104
-0.0916176
-0.0827076
-0.0674411
-0.0427801
-0.0186346
-0.00995521
-0.0227238
-0.0644298
-0.104095
-0.131772
-0.14753
-0.155348
-0.158982
-0.160055
-0.0453056
-0.0450294
-0.0449898
-0.0447783
-0.0437072
-0.0408969
-0.0352669
-0.0251734
-0.00886407
0.013718
0.0298204
0.0261061
0.00915057
-0.0196627
-0.0461419
-0.064269
-0.0747157
-0.0801463
-0.0828593
-0.0837484
-0.00858013
-0.00833506
-0.00831171
-0.00825288
-0.00750517
-0.00524566
-0.000598359
0.00750453
0.019866
0.0351849
0.0433249
0.036936
0.0220489
0.00335296
-0.01313
-0.0246318
-0.0315127
-0.0352037
-0.0370381
-0.0376272
0.0143787
0.0145479
0.0145001
0.0143347
0.0146333
0.0160306
0.019171
0.0247215
0.0328518
0.0419112
0.0449884
0.0388139
0.0277126
0.0156019
0.0052577
-0.00217247
-0.00682595
-0.0093731
-0.0105962
-0.0110062
0.0274617
0.0275542
0.0274324
0.0270934
0.0270062
0.0276473
0.0294227
0.0326875
0.0374
0.0421693
0.0426284
0.0374942
0.029702
0.0217339
0.0150334
0.0100873
0.00684841
0.00504407
0.00421521
0.0039628
0.0338608
0.0338949
0.0337223
0.0332775
0.0329419
0.0330385
0.0338409
0.0355233
0.0379289
0.0400243
0.0392132
0.0350769
0.0295887
0.0242172
0.0197269
0.0163317
0.0140277
0.0127301
0.012162
0.0119927
0.0359057
0.0359037
0.0357013
0.0352088
0.0347288
0.0344692
0.0346069
0.035229
0.0361886
0.036739
0.0353753
0.0320949
0.0281781
0.0244641
0.0213648
0.0189805
0.0173202
0.0163801
0.015986
0.0158644
0.0351721
0.0351512
0.0349436
0.0344583
0.0339198
0.0334696
0.0332198
0.0332006
0.0332891
0.0329934
0.0314808
0.0288866
0.0260223
0.0233801
0.0211822
0.0194714
0.0182586
0.0175707
0.0172926
0.0172121
0.0327063
0.0326781
0.0324848
0.0320398
0.031505
0.0309804
0.0305349
0.0301772
0.0298102
0.0290995
0.0276091
0.025541
0.023406
0.0214843
0.0198923
0.0186446
0.0177501
0.0172432
0.0170446
0.0169887
0.0291868
0.0291584
0.02899
0.0286011
0.028109
0.0275832
0.0270652
0.0265516
0.025972
0.0251097
0.0237555
0.0221139
0.0205038
0.0190847
0.0179156
0.0169966
0.0163336
0.0159583
0.015815
0.0157755
0.0250421
0.0250169
0.0248784
0.0245539
0.0241266
0.0236476
0.0231401
0.0225969
0.0219666
0.0211073
0.0199363
0.0186421
0.0174246
0.0163702
0.0155062
0.0148265
0.0143341
0.0140559
0.0139525
0.0139245
0.0205374
0.0205168
0.0204083
0.0201493
0.0197964
0.0193897
0.0189405
0.018441
0.0178555
0.0170926
0.016134
0.0151375
0.0142283
0.0134517
0.0128178
0.0123179
0.0119545
0.0117504
0.0116765
0.0116568
0.0158323
0.0158164
0.0157357
0.0155387
0.015264
0.0149427
0.0145805
0.0141704
0.0136879
0.0130751
0.0123418
0.0116098
0.0109559
0.0104018
0.00994921
0.00959026
0.00932784
0.00918166
0.00913032
0.0091166
0.011019
0.0110075
0.0109511
0.0108111
0.0106144
0.0103854
0.0101267
0.00983261
0.00948701
0.00905515
0.00855334
0.00806448
0.00763312
0.00726819
0.00696778
0.00672591
0.00654669
0.00644728
0.00641314
0.00640362
0.00614628
0.00613865
0.00610482
0.0060195
0.00590317
0.00577281
0.00562766
0.00546333
0.005271
0.00503355
0.00476143
0.00449928
0.00426943
0.00407439
0.00391158
0.00377633
0.00367251
0.00361474
0.00359487
0.0035879
0.00125239
0.00125493
0.00126941
0.00127504
0.00125568
0.00122433
0.00118753
0.00114698
0.00110014
0.00104305
0.000975028
0.000905953
0.000845178
0.000793399
0.000750598
0.000716065
0.000690834
0.00068291
0.000693529
0.000701195
-0.745233
-0.521568
-0.267918
-0.0597681
0.109287
0.245588
0.360692
0.457851
0.502424
0.479974
-0.34333
-0.189496
-0.0290777
0.109171
0.2266
0.32503
0.405173
0.462484
0.492267
0.503517
-0.0676136
0.0345025
0.141976
0.237555
0.320048
0.389299
0.444365
0.484577
0.512807
0.529904
0.125769
0.195912
0.271156
0.339442
0.398788
0.44903
0.490017
0.522285
0.547758
0.565493
0.271805
0.322509
0.376384
0.427301
0.472161
0.51106
0.544001
0.571015
0.593048
0.610549
0.389096
0.42667
0.469455
0.50964
0.546177
0.578631
0.606718
0.630043
0.648971
0.666165
0.489522
0.520836
0.558081
0.593008
0.625397
0.65459
0.679934
0.700824
0.717063
0.7341
0.582905
0.613762
0.649772
0.683532
0.714636
0.742503
0.766394
0.785639
0.799525
0.816581
0.681199
0.715341
0.753206
0.787864
0.818856
0.845855
0.868465
0.886235
0.898472
0.915917
0.798087
0.836281
0.875721
0.910691
0.940619
0.965868
0.986652
1.00287
1.01458
1.0327
0.944226
0.983165
1.01955
1.05062
1.07665
1.09905
1.11836
1.13409
1.14668
1.16472
1.11965
1.1517
1.17813
1.20077
1.22095
1.23986
1.25772
1.27431
1.28976
1.30786
1.30865
1.32603
1.34129
1.35769
1.3737
1.38833
1.40163
1.41563
1.43324
1.45342
1.49083
1.5003
1.5119
1.52277
1.5321
1.54177
1.55267
1.5641
1.5755
1.59088
1.69806
1.70177
1.68684
1.67205
1.66587
1.67161
1.69011
1.72047
1.75268
1.77935
2.0044
1.86956
1.79299
1.75074
1.73333
1.7373
1.76475
1.82115
1.92378
2.14816
0.293712
0.291593
0.28711
0.278496
0.266291
0.254185
0.243978
0.236093
0.230453
0.227124
0.226616
0.229139
0.234034
0.241076
0.250313
0.261736
0.2743
0.285272
0.291359
0.294386
0.218126
0.223978
0.230333
0.234859
0.237358
0.237064
0.234353
0.230559
0.227037
0.224701
0.224387
0.226359
0.229792
0.233877
0.237521
0.239272
0.238232
0.234663
0.229432
0.222785
0.209662
0.211961
0.215397
0.218446
0.220581
0.222133
0.222934
0.222646
0.221602
0.220622
0.220611
0.221802
0.223375
0.224447
0.22442
0.223357
0.221657
0.219195
0.215842
0.212884
0.204103
0.205185
0.207074
0.209545
0.211663
0.213171
0.21425
0.215026
0.215418
0.21556
0.21585
0.21636
0.216655
0.216451
0.215799
0.214732
0.213064
0.210798
0.208573
0.207147
0.198879
0.19953
0.200717
0.202578
0.204528
0.20632
0.207744
0.20882
0.20968
0.210366
0.210861
0.211073
0.210925
0.210426
0.209523
0.208136
0.2064
0.204582
0.203068
0.202242
0.193946
0.194375
0.195259
0.196789
0.198526
0.20028
0.201949
0.203386
0.204547
0.205473
0.206104
0.206286
0.205997
0.20526
0.204097
0.202657
0.201106
0.199587
0.198409
0.197857
0.189412
0.189707
0.190423
0.191791
0.193423
0.195077
0.196748
0.198376
0.199813
0.200958
0.201731
0.201955
0.201589
0.200723
0.199554
0.198241
0.196846
0.195471
0.194485
0.194083
0.185231
0.185416
0.186001
0.187245
0.188763
0.190315
0.191839
0.193346
0.194833
0.196198
0.197159
0.197438
0.197147
0.196496
0.195593
0.194484
0.193244
0.19202
0.191182
0.190903
0.181778
0.181862
0.182319
0.183464
0.184931
0.186454
0.188043
0.189627
0.191154
0.192568
0.193699
0.19425
0.194203
0.193691
0.192846
0.19184
0.190719
0.189608
0.188917
0.188752
0.179268
0.179301
0.17959
0.180399
0.181537
0.182749
0.184031
0.185442
0.186991
0.188583
0.189957
0.190759
0.190979
0.190833
0.19044
0.189856
0.189128
0.188422
0.188025
0.18794
0.176892
0.17692
0.177105
0.177589
0.178352
0.179306
0.180466
0.181838
0.183402
0.18512
0.186783
0.187968
0.188578
0.18875
0.188675
0.188448
0.188189
0.187924
0.187776
0.187721
0.173831
0.173856
0.174005
0.174351
0.174919
0.175718
0.176783
0.178169
0.179903
0.181912
0.183962
0.185545
0.186507
0.187053
0.187238
0.187359
0.187441
0.187458
0.187429
0.187391
0.169913
0.169927
0.170069
0.170417
0.170942
0.171714
0.172838
0.174332
0.17626
0.178597
0.181123
0.183224
0.184626
0.185517
0.186154
0.18656
0.186808
0.186926
0.186939
0.186918
0.165334
0.165334
0.165473
0.165885
0.166544
0.167438
0.168718
0.170465
0.172755
0.175553
0.178688
0.181395
0.183304
0.18459
0.185461
0.186037
0.186392
0.186547
0.186599
0.186602
0.160218
0.160206
0.160341
0.160799
0.161569
0.16274
0.164224
0.166264
0.168962
0.17239
0.176296
0.179753
0.182268
0.184039
0.185236
0.186032
0.186473
0.186702
0.186811
0.186832
0.154553
0.154527
0.15468
0.155186
0.156096
0.157411
0.159284
0.16173
0.165011
0.169228
0.174092
0.178474
0.181706
0.183956
0.185541
0.186603
0.187233
0.187591
0.187769
0.187802
0.148112
0.148079
0.148269
0.148839
0.14988
0.151438
0.15363
0.156657
0.160717
0.165951
0.17203
0.177533
0.181604
0.184518
0.186568
0.187927
0.188795
0.189316
0.189565
0.189608
0.140522
0.140483
0.140711
0.141419
0.142642
0.144492
0.147182
0.15094
0.155997
0.162535
0.170133
0.177022
0.182137
0.185843
0.188398
0.190134
0.191278
0.19198
0.192302
0.192353
0.131383
0.131334
0.131636
0.132495
0.134019
0.136333
0.139693
0.144396
0.150746
0.158948
0.16844
0.177011
0.183403
0.187982
0.191177
0.193362
0.194821
0.19572
0.196124
0.196187
0.120253
0.120194
0.120603
0.121718
0.123644
0.126583
0.130852
0.136828
0.144871
0.155178
0.167007
0.177623
0.185496
0.191144
0.1951
0.197815
0.199639
0.200766
0.201267
0.201342
0.106456
0.106385
0.106948
0.108432
0.110958
0.114792
0.120333
0.128034
0.138273
0.151231
0.165917
0.178977
0.188617
0.195532
0.200385
0.20373
0.205985
0.207384
0.208006
0.208095
0.0890548
0.0889748
0.0897831
0.0918221
0.0952262
0.100357
0.107695
0.117733
0.130851
0.147143
0.165284
0.181227
0.192942
0.20135
0.207272
0.211373
0.214153
0.215881
0.216651
0.216755
0.0666485
0.066579
0.0677973
0.0706896
0.075434
0.0825072
0.092441
0.10571
0.122597
0.14302
0.165258
0.184537
0.198642
0.208794
0.215991
0.221016
0.224447
0.226582
0.227526
0.227649
0.0368623
0.03685
0.0388124
0.0431973
0.0502209
0.060403
0.0742015
0.0919283
0.113655
0.139074
0.166044
0.189078
0.205869
0.218017
0.226725
0.232889
0.237151
0.239813
0.240975
0.241118
-0.00453062
-0.00432083
-0.000680558
0.00681775
0.0180359
0.0333516
0.0528688
0.0765994
0.104358
0.135626
0.167877
0.194994
0.214707
0.229077
0.239543
0.247113
0.252471
0.255841
0.25727
0.257424
-0.0653317
-0.0637412
-0.0550297
-0.0409533
-0.0219878
0.00148114
0.0290001
0.0603728
0.0952638
0.133057
0.170945
0.20232
0.225087
0.241827
0.254245
0.263483
0.270198
0.274538
0.276376
0.276567
-0.138081
-0.135492
-0.119205
-0.0945297
-0.0649994
-0.0320397
0.00424178
0.043799
0.0863681
0.131425
0.175969
0.212795
0.239802
0.260062
0.275508
0.287406
0.296582
0.30229
0.304208
0.30477
-0.212986
-0.204721
-0.18069
-0.145928
-0.106781
-0.0646417
-0.0197097
0.0279791
0.0782211
0.130567
0.181838
0.224176
0.255418
0.279157
0.297622
0.312179
0.323548
0.33072
0.334127
0.33519
-0.271097
-0.261429
-0.232491
-0.191071
-0.144506
-0.0947148
-0.0421439
0.0130018
0.0704207
0.129608
0.187079
0.23427
0.269011
0.295397
0.315915
0.332093
0.344708
0.35324
0.357697
0.358952
-0.318126
-0.307914
-0.275582
-0.229391
-0.177278
-0.121462
-0.0625754
-0.000983111
0.0628177
0.128187
0.191203
0.242548
0.280038
0.308259
0.330012
0.347056
0.36032
0.369595
0.374354
0.375666
-0.357041
-0.346743
-0.312322
-0.26249
-0.205911
-0.145232
-0.081091
-0.0139702
0.0554517
0.126337
0.194303
0.249206
0.288867
0.318395
0.340909
0.358349
0.371766
0.381164
0.385932
0.387378
-0.39075
-0.380474
-0.344487
-0.291771
-0.231543
-0.166773
-0.0981018
-0.0261682
0.048251
0.12413
0.196591
0.254731
0.296332
0.326944
0.349978
0.367583
0.381013
0.390399
0.395163
0.396576
-0.420797
-0.410574
-0.373435
-0.318302
-0.255065
-0.186775
-0.114159
-0.0379316
0.0410271
0.121539
0.19828
0.259498
0.302882
0.334448
0.357922
0.375684
0.389091
0.398469
0.403272
0.404544
-0.448385
-0.43818
-0.400098
-0.342943
-0.277126
-0.205764
-0.129653
-0.0495581
0.0335612
0.118419
0.199244
0.263472
0.308691
0.341297
0.365306
0.38328
0.396747
0.406112
0.410933
0.412051
-0.474275
-0.464061
-0.425157
-0.366236
-0.298133
-0.224084
-0.144885
-0.0613113
0.0256331
0.114574
0.19943
0.266828
0.31407
0.347866
0.372517
0.390798
0.404374
0.413714
0.418521
0.419539
-0.498924
-0.488685
-0.449027
-0.38857
-0.318462
-0.242021
-0.16006
-0.0733447
0.0171247
0.109997
0.198906
0.269616
0.319081
0.354285
0.379751
0.398468
0.412239
0.421602
0.426378
0.42736
-0.522712
-0.512379
-0.471972
-0.41022
-0.338286
-0.25971
-0.175282
-0.085718
0.00802704
0.104634
0.197549
0.271752
0.323708
0.36059
0.387097
0.406411
0.420492
0.429942
0.43461
0.435583
-0.545822
-0.535323
-0.494259
-0.431296
-0.357721
-0.277263
-0.190626
-0.0984861
-0.00175006
0.0983615
0.195252
0.273161
0.327926
0.366776
0.394579
0.414678
0.429184
0.438775
0.443342
0.444285
-0.568275
-0.557581
-0.515978
-0.451861
-0.376846
-0.294717
-0.206117
-0.111689
-0.0122545
0.0911389
0.191934
0.273706
0.331623
0.3728
0.402178
0.423263
0.438313
0.44808
0.452554
0.453386
-0.590203
-0.579288
-0.537097
-0.471933
-0.395661
-0.312059
-0.221742
-0.125299
-0.0234374
0.08297
0.1875
0.273234
0.334602
0.378519
0.409821
0.432119
0.447831
0.457796
0.462146
0.462842
-0.61154
-0.600403
-0.557652
-0.491537
-0.414145
-0.329255
-0.237441
-0.139243
-0.035257
0.0738449
0.181885
0.271587
0.336652
0.383726
0.417392
0.441205
0.457697
0.467847
0.472028
0.472538
-0.632302
-0.62092
-0.577601
-0.51064
-0.432261
-0.346252
-0.25315
-0.15345
-0.0476491
0.0638075
0.175053
0.268609
0.337544
0.388187
0.424762
0.4505
0.467884
0.478078
0.481929
0.48224
-0.652347
-0.640788
-0.596909
-0.529194
-0.449945
-0.362969
-0.268798
-0.167841
-0.0605188
0.0529416
0.167
0.26418
0.337013
0.391579
0.431709
0.460032
0.478529
0.48847
0.491674
0.491715
-0.671771
-0.659958
-0.615555
-0.547171
-0.467163
-0.379366
-0.284291
-0.18232
-0.0737603
0.0413474
0.157769
0.258211
0.33481
0.393467
0.437823
0.469785
0.490092
0.499379
0.501099
0.500648
-0.69045
-0.678383
-0.633511
-0.564518
-0.483839
-0.395361
-0.299545
-0.196764
-0.0872541
0.0291197
0.147449
0.25067
0.330749
0.393376
0.442417
0.4794
0.503274
0.512295
0.510891
0.508676
-0.708416
-0.69614
-0.650734
-0.581189
-0.499935
-0.410889
-0.31448
-0.211093
-0.100879
0.0164181
0.136167
0.24156
0.324713
0.390859
0.444429
0.487653
0.517961
0.530175
0.525945
0.514669
-0.725607
-0.713168
-0.667332
-0.597325
-0.515648
-0.426219
-0.329422
-0.225703
-0.115091
0.00271421
0.123325