/*--------------------------------*- C++ -*----------------------------------*\
  =========                 |
  \\      /  F ield         | OpenFOAM: The Open Source CFD Toolbox
   \\    /   O peration     | Website:  https://openfoam.org
    \\  /    A nd           | Version:  9
     \\/     M anipulation  |
\*---------------------------------------------------------------------------*/
FoamFile
{
    format      ascii;
    class       volScalarField;
    location    "32";
    object      p;
}
// * * * * * * * * * * * * * * * * * * * * * * * * * * * * * * * * * * * * * //

dimensions      [0 2 -2 0 0 0 0];

internalField   nonuniform List<scalar> 
8800
(
1.51175
1.46396
1.42527
1.39626
1.37539
1.36054
1.34991
1.34239
1.33752
1.3354
1.33657
1.34068
1.34726
1.35653
1.36927
1.38698
1.41174
1.44567
1.48821
1.54691
1.34301
1.35069
1.35815
1.36146
1.35994
1.35485
1.34835
1.34224
1.33748
1.33456
1.3342
1.33661
1.34102
1.34691
1.35363
1.35987
1.36349
1.36274
1.35731
1.34861
1.32144
1.32759
1.33172
1.33465
1.33669
1.33727
1.33614
1.334
1.33192
1.33093
1.33179
1.33408
1.3368
1.33892
1.33948
1.33825
1.33588
1.33247
1.3279
1.32414
1.31567
1.31832
1.32106
1.32346
1.32508
1.32622
1.32693
1.327
1.32664
1.3265
1.32714
1.3282
1.32896
1.32895
1.32828
1.32714
1.32529
1.32269
1.32028
1.31877
1.31034
1.31177
1.31354
1.31557
1.31734
1.31866
1.31961
1.32036
1.3209
1.32136
1.32187
1.32225
1.32224
1.32186
1.32109
1.31978
1.31804
1.31615
1.31483
1.314
1.30534
1.30626
1.3075
1.30907
1.31069
1.31219
1.31344
1.31446
1.31533
1.3161
1.31663
1.31681
1.31663
1.31608
1.3151
1.31382
1.31243
1.31112
1.31027
1.30972
1.30053
1.3012
1.30217
1.30347
1.30487
1.30631
1.30772
1.30899
1.31009
1.31105
1.31168
1.31186
1.3116
1.31094
1.31001
1.30895
1.30785
1.30686
1.30624
1.30584
1.29588
1.29639
1.29718
1.29832
1.2996
1.30096
1.30238
1.3038
1.30512
1.30629
1.30706
1.30729
1.30704
1.30645
1.30568
1.30481
1.30391
1.30314
1.30268
1.30237
1.29132
1.29173
1.29239
1.29342
1.29463
1.29595
1.29736
1.29885
1.30035
1.30173
1.3027
1.30306
1.30294
1.30252
1.30193
1.30122
1.30049
1.29989
1.29953
1.29928
1.28678
1.28711
1.28768
1.28864
1.28981
1.29112
1.29255
1.29411
1.29576
1.2974
1.29861
1.29919
1.29929
1.29907
1.29865
1.29811
1.29752
1.29706
1.29678
1.29658
1.2822
1.28246
1.28298
1.2839
1.28507
1.28641
1.28791
1.28959
1.29142
1.29331
1.29486
1.29575
1.29611
1.2961
1.29585
1.29547
1.29501
1.29465
1.29444
1.29428
1.27752
1.27773
1.27821
1.27913
1.28032
1.28172
1.28334
1.2852
1.2873
1.28954
1.29148
1.29273
1.29338
1.29359
1.29353
1.2933
1.29298
1.29272
1.29256
1.29242
1.27268
1.27285
1.27331
1.27424
1.2755
1.27701
1.27877
1.28086
1.28329
1.28599
1.28842
1.29009
1.29107
1.29158
1.29174
1.29166
1.29146
1.29129
1.29118
1.29107
1.26763
1.26776
1.2682
1.26917
1.27052
1.27216
1.27411
1.27646
1.27926
1.2825
1.28554
1.28777
1.28921
1.29007
1.2905
1.29063
1.29056
1.29048
1.29042
1.29032
1.26229
1.26238
1.26283
1.26385
1.26533
1.26716
1.26939
1.27213
1.27547
1.2794
1.2832
1.28607
1.288
1.28923
1.28996
1.29031
1.29041
1.29042
1.29041
1.29033
1.25659
1.25665
1.25709
1.25817
1.25977
1.26181
1.26434
1.26753
1.27151
1.2763
1.28102
1.28469
1.28729
1.28903
1.29015
1.29079
1.29111
1.29124
1.29128
1.29121
1.25032
1.25037
1.25082
1.25193
1.2537
1.256
1.25894
1.26271
1.26748
1.27332
1.2792
1.28387
1.28722
1.28957
1.29119
1.29224
1.29285
1.29314
1.29322
1.29316
1.2432
1.24323
1.24372
1.24491
1.24689
1.24955
1.25302
1.25756
1.26339
1.27057
1.27783
1.28366
1.28794
1.29102
1.29323
1.29471
1.29566
1.29613
1.29625
1.29618
1.23478
1.23481
1.23536
1.23671
1.23897
1.24209
1.24625
1.25176
1.25887
1.2677
1.27669
1.28394
1.28934
1.29329
1.29619
1.29822
1.29954
1.30019
1.30035
1.30026
1.22454
1.22457
1.22522
1.22683
1.22956
1.23338
1.23852
1.24534
1.25415
1.26504
1.27609
1.28502
1.29168
1.2966
1.30027
1.30287
1.30457
1.30539
1.30559
1.30549
1.21193
1.21197
1.21278
1.21479
1.21819
1.22298
1.22943
1.23796
1.24891
1.26235
1.2759
1.28681
1.29497
1.30103
1.30555
1.30878
1.31088
1.31188
1.31211
1.31199
1.19621
1.19625
1.19731
1.19992
1.2043
1.21045
1.21869
1.22951
1.24322
1.25981
1.27633
1.28953
1.2994
1.30674
1.31224
1.31619
1.31873
1.3199
1.32017
1.32003
1.17627
1.17634
1.17778
1.18128
1.18711
1.19519
1.20593
1.2198
1.23704
1.25747
1.27746
1.29329
1.30509
1.3139
1.32051
1.32528
1.32831
1.32966
1.32996
1.32979
1.15031
1.15043
1.15251
1.15747
1.16556
1.17654
1.19082
1.20879
1.23048
1.25551
1.2795
1.29826
1.31221
1.32264
1.33054
1.33625
1.33978
1.34131
1.34162
1.34142
1.11535
1.1156
1.11895
1.12658
1.13847
1.15395
1.17332
1.19669
1.22385
1.2542
1.28263
1.3046
1.32089
1.33312
1.34242
1.34913
1.35317
1.35487
1.35518
1.35494
1.06574
1.06687
1.07354
1.08659
1.10505
1.12744
1.15379
1.18398
1.21758
1.25387
1.28705
1.31241
1.33117
1.34534
1.35611
1.36384
1.36844
1.37029
1.37056
1.37026
0.992789
1.00034
1.01569
1.03877
1.06686
1.09839
1.13328
1.17132
1.21209
1.25489
1.2933
1.32245
1.34407
1.36051
1.3731
1.38215
1.38754
1.38974
1.39009
1.38987
0.914883
0.932285
0.957025
0.990497
1.02854
1.06932
1.11282
1.15893
1.20735
1.2575
1.30228
1.33635
1.3618
1.38124
1.39625
1.4073
1.41387
1.41643
1.41701
1.41697
0.850815
0.871079
0.903652
0.94567
0.992271
1.04167
1.09344
1.14744
1.20333
1.26059
1.3114
1.34997
1.37877
1.40079
1.41768
1.42993
1.43745
1.44079
1.44128
1.44132
0.798698
0.820749
0.858487
0.906534
0.959845
1.01635
1.07536
1.13655
1.19945
1.26341
1.3198
1.36237
1.39398
1.41797
1.43634
1.44983
1.45853
1.46188
1.4625
1.46261
0.755531
0.778667
0.819876
0.872667
0.931298
0.99362
1.05881
1.12635
1.19559
1.2657
1.32714
1.37321
1.40719
1.43286
1.45249
1.46688
1.4761
1.47991
1.48074
1.48089
0.718679
0.742454
0.786379
0.842828
0.905851
0.973086
1.04361
1.11675
1.1917
1.2674
1.33342
1.38257
1.41855
1.44554
1.46604
1.48103
1.49064
1.49487
1.49594
1.4961
0.686156
0.710371
0.756373
0.815903
0.882635
0.954117
1.02933
1.1075
1.18763
1.26848
1.3387
1.39062
1.42832
1.45637
1.47751
1.49293
1.50282
1.50734
1.50851
1.50866
0.656518
0.681138
0.728861
0.791006
0.860957
0.936162
1.01557
1.09828
1.1832
1.26886
1.34304
1.39756
1.43682
1.46576
1.48735
1.50306
1.513
1.51767
1.51889
1.519
0.628888
0.653874
0.703163
0.767539
0.840317
0.918817
1.00198
1.08885
1.17822
1.26846
1.3465
1.40356
1.44433
1.47411
1.49613
1.51197
1.52198
1.52674
1.52803
1.5281
0.602546
0.627956
0.678659
0.74503
0.820344
0.901789
0.98834
1.07902
1.17256
1.26721
1.34908
1.40874
1.45109
1.48177
1.50425
1.52029
1.53033
1.535
1.53635
1.53646
0.577224
0.60307
0.654848
0.723195
0.800777
0.884877
0.974497
1.06867
1.16613
1.26505
1.35079
1.41319
1.45728
1.48899
1.51202
1.5283
1.53839
1.543
1.54426
1.54432
0.552561
0.57897
0.631795
0.701848
0.78146
0.867947
0.960353
1.05774
1.15886
1.26193
1.35161
1.41697
1.46302
1.49593
1.51964
1.53623
1.54639
1.55093
1.55204
1.55203
0.528477
0.555339
0.6093
0.680873
0.762314
0.850947
0.945864
1.04618
1.15072
1.2578
1.35152
1.42008
1.46834
1.50265
1.52717
1.54413
1.55433
1.55875
1.55974
1.55963
0.504895
0.53231
0.587245
0.660217
0.743311
0.833862
0.931031
1.034
1.14171
1.25264
1.35044
1.42244
1.47323
1.5092
1.53466
1.55203
1.56221
1.56642
1.56725
1.56706
0.481728
0.509745
0.565619
0.639877
0.724447
0.816712
0.915887
1.02124
1.13184
1.2464
1.34826
1.42396
1.47766
1.51559
1.54215
1.55992
1.56999
1.5739
1.57453
1.57429
0.45899
0.487668
0.544459
0.619884
0.705774
0.799545
0.900493
1.00795
1.12114
1.23905
1.34492
1.42452
1.4815
1.52182
1.54972
1.56784
1.57759
1.58107
1.58149
1.5812
0.436851
0.466145
0.523806
0.600279
0.687342
0.782437
0.884917
0.994214
1.10968
1.23065
1.34034
1.42396
1.48461
1.52786
1.55751
1.57595
1.58505
1.58782
1.58799
1.58767
0.415344
0.445223
0.503694
0.581122
0.669214
0.765454
0.869259
0.98012
1.09756
1.22122
1.33448
1.42212
1.48675
1.53356
1.56569
1.58469
1.59265
1.59415
1.59391
1.59362
0.394412
0.424946
0.484163
0.562455
0.651461
0.748685
0.853611
0.96578
1.08489
1.21086
1.3273
1.41886
1.48765
1.53861
1.57426
1.59476
1.60137
1.60053
1.59925
1.59916
0.37423
0.405339
0.465276
0.544348
0.634145
0.732215
0.838071
0.95131
1.07177
1.19965
1.31884
1.41404
1.48699
1.54244
1.58278
1.6067
1.61332
1.60949
1.60542
1.60444
0.35471
0.386414
0.447015
0.526776
0.617235
0.715996
0.82258
0.936647
1.05814
1.18755
1.30895
1.40741
1.48444
1.5443
1.59011
1.61992
1.63027
1.62696
1.61653
1.5996
0.335927
0.368178
0.429259
0.509547
0.600437
0.699691
0.806718
0.921298
1.04345
1.17388
1.29695
1.39811
1.47931
1.54301
1.59361
1.63054
1.64561
1.63624
1.61922
1.60181
0.318054
0.350497
0.412193
0.492903
0.584052
0.683649
0.790713
0.905597
1.02803
1.15893
1.283
1.38581
1.4711
1.5376
1.58816
1.6252
1.64343
1.62508
1.55455
1.52123
0.301743
0.332202
0.396149
0.477438
0.568795
0.668364
0.77486
0.889769
1.01209
1.14285
1.26711
1.37033
1.45871
1.52811
1.56969
1.59851
1.60046
1.55042
1.47877
1.43409
0.245675
0.316162
0.381414
0.462003
0.553215
0.65243
0.759099
0.873546
0.995282
1.12523
1.24873
1.35129
1.43884
1.51556
1.51979
1.53459
1.49892
1.43396
1.35672
1.31322
0.284321
0.300305
0.359941
0.440135
0.530582
0.629508
0.735152
0.84873
0.969155
1.09716
1.21788
1.31776
1.39671
1.47362
1.47066
1.36549
1.26195
1.19011
1.11632
1.15134
0.253123
0.282401
0.342883
0.422517
0.512987
0.611565
0.717359
0.830186
0.949378
1.07533
1.19286
1.28855
1.35986
1.40046
1.3561
1.21196
1.08349
0.991886
0.891169
0.945915
0.22906
0.261312
0.322996
0.402928
0.493464
0.591883
0.697499
0.809381
0.927027
1.0504
1.16402
1.25405
1.31564
1.32499
1.22172
1.04616
0.889622
0.767763
0.633451
0.67006
0.205554
0.239348
0.302214
0.382986
0.473694
0.571965
0.677015
0.787836
0.903762
1.02423
1.13318
1.21693
1.26361
1.24053
1.08336
0.881367
0.684141
0.505782
0.307167
0.297569
0.18276
0.216912
0.280655
0.362158
0.453073
0.551146
0.655521
0.765177
0.879154
0.996393
1.10014
1.17679
1.20625
1.1484
0.951874
0.733365
0.505488
0.302998
0.044955
-0.277625
0.159706
0.193817
0.258056
0.340051
0.431184
0.529113
0.632888
0.741363
0.853312
0.967128
1.06553
1.13393
1.14597
1.0373
0.837757
0.619459
0.403335
0.220149
0.150309
0.0538028
0.135525
0.169618
0.234097
0.316332
0.407553
0.505252
0.608338
0.715469
0.825094
0.935013
1.02766
1.08637
1.07365
0.928624
0.736994
0.538483
0.367694
0.26917
0.245067
0.227256
0.109897
0.143993
0.208621
0.290931
0.382066
0.479377
0.581545
0.687039
0.793934
0.899346
0.985774
1.03243
0.999541
0.828164
0.64597
0.47352
0.340438
0.299195
0.284317
0.28247
0.0826132
0.116796
0.181578
0.263876
0.354798
0.45151
0.552522
0.656055
0.759789
0.860128
0.939603
0.973159
0.922957
0.734156
0.561742
0.407459
0.320396
0.305537
0.303792
0.303799
0.0536552
0.0880383
0.152964
0.235202
0.325766
0.421699
0.521307
0.622545
0.722693
0.817449
0.889019
0.911088
0.828103
0.647938
0.483237
0.354923
0.31777
0.314315
0.314198
0.314852
0.0233341
0.0579241
0.122921
0.20503
0.295099
0.390047
0.487985
0.586593
0.68271
0.771418
0.834634
0.84115
0.732986
0.567222
0.419
0.333681
0.324122
0.322295
0.321486
0.321861
-0.00777281
0.0268812
0.0917369
0.173617
0.263031
0.35677
0.452772
0.548404
0.640078
0.722271
0.777449
0.766005
0.646736
0.495766
0.365513
0.345381
0.328421
0.325909
0.3268
0.327368
-0.0392005
-0.00461035
0.0599451
0.141388
0.229957
0.322256
0.416034
0.508357
0.595198
0.670581
0.717301
0.690809
0.561816
0.43371
0.329373
0.291473
0.314715
0.327709
0.331206
0.332114
-0.0701179
-0.0357866
0.0283159
0.108998
0.196468
0.287069
0.37833
0.467046
0.54869
0.617131
0.654315
0.616141
0.474761
0.387349
0.316871
0.319787
0.319138
0.321661
0.32555
0.327844
-0.0989692
-0.065498
-0.00226963
0.0773459
0.163404
0.25201
0.340469
0.425321
0.5015
0.562539
0.592611
0.536432
0.381762
0.320541
0.361379
0.306184
0.285952
0.280309
0.281672
0.284369
-0.124411
-0.0919376
-0.0306868
0.047592
0.131847
0.218137
0.30352
0.384306
0.455003
0.507974
0.534774
0.448745
0.270868
0.184521
0.253533
0.218511
0.199672
0.190425
0.188495
0.190076
-0.144487
-0.113841
-0.0548985
0.021144
0.103113
0.186722
0.268831
0.345455
0.410854
0.455558
0.478154
0.363761
0.138963
-0.147175
-0.199748
-0.0620408
0.00678437
0.0268971
0.0386609
0.0475774
-0.157302
-0.129248
-0.0734065
-0.000278869
0.0787661
0.159293
0.23796
0.310569
0.371036
0.408558
0.423267
0.294912
0.0736164
-0.313324
-0.523923
-0.215001
-0.10842
-0.0854699
-0.076337
-0.072491
-0.160536
-0.136268
-0.0845041
-0.015042
0.0605262
0.137518
0.212699
0.281714
0.337888
0.370113
0.37239
0.282753
0.237165
0.366854
0.365893
0.155311
-0.0623017
-0.0629472
-0.0578465
-0.056593
-0.152781
-0.132864
-0.0863225
-0.0216899
0.0497926
0.123005
0.194879
0.261138
0.314392
0.343701
0.340653
0.297759
0.383072
0.753129
0.905474
0.419052
0.0511075
0.0192743
0.0205034
0.00183957
-0.132189
-0.116493
-0.0774926
-0.0192081
0.0475148
0.116943
0.186049
0.250798
0.30396
0.332854
0.320366
0.190246
-0.144788
-0.778022
-1.40255
-1.79637
-1.58203
-1.16536
-0.760487
-0.663276
-0.100187
-0.0894537
-0.0583846
-0.00778189
0.0538185
0.119668
0.187062
0.252107
0.309218
0.344668
0.334558
0.0993668
-0.577089
-1.49955
-2.12693
-2.40155
-2.27729
-1.94876
-1.59756
-1.36662
-0.0612219
-0.0548801
-0.0324259
0.0105328
0.0670953
0.130343
0.197496
0.265962
0.33076
0.387244
0.406183
0.315795
0.0130311
-0.290926
-0.489753
-0.393126
-0.122671
0.169004
0.393883
0.508259
-0.0214775
-0.0179676
-0.00429292
0.03145
0.0843498
0.14645
0.215271
0.289693
0.367856
0.451476
0.539908
0.668678
0.869549
1.25366
1.73851
2.22684
2.61443
2.85133
2.96364
2.99678
0.0128463
0.0148804
0.0223762
0.0508106
0.10083
0.164191
0.23618
0.317229
0.409844
0.516491
0.652538
0.80493
1.12166
1.68987
2.3434
2.92538
3.35129
3.59702
3.70379
3.73234
0.0456684
0.0462318
0.0487114
0.068407
0.114849
0.179592
0.255142
0.340634
0.437188
0.549912
0.67138
0.807646
1.00047
1.47839
2.02655
2.50175
2.84862
3.04886
3.14025
3.1666
0.0745699
0.0754518
0.0761162
0.0874622
0.128335
0.193719
0.271355
0.357819
0.451711
0.558938
0.669366
0.782187
0.905731
1.21281
1.63386
1.98595
2.24951
2.40136
2.46989
2.48852
0.0933419
0.0945043
0.0942457
0.101723
0.141649
0.209406
0.28869
0.373473
0.463452
0.56271
0.657598
0.743812
0.822005
1.01568
1.30302
1.54976
1.73126
1.83556
1.88116
1.89255
0.106385
0.104455
0.101347
0.110361
0.157414
0.231199
0.31193
0.392668
0.47536
0.562683
0.641351
0.70311
0.760606
0.88268
1.07427
1.23699
1.35313
1.41934
1.4477
1.45387
0.15305
0.148172
0.143185
0.155166
0.202473
0.273361
0.346914
0.418278
0.489742
0.56309
0.627972
0.674493
0.714806
0.794154
0.922271
1.0258
1.09709
1.13595
1.15182
1.15362
0.267122
0.262491
0.258795
0.267665
0.29999
0.347282
0.399152
0.452584
0.508239
0.567047
0.618963
0.654478
0.682828
0.735666
0.817897
0.884896
0.928093
0.951387
0.960479
0.960749
0.4109
0.408786
0.406091
0.407108
0.417062
0.43502
0.460456
0.491937
0.529707
0.573725
0.614549
0.645552
0.669257
0.705573
0.755994
0.797514
0.824396
0.838586
0.843982
0.843566
0.524512
0.523795
0.521202
0.515683
0.509843
0.508575
0.514503
0.528465
0.551042
0.58197
0.614841
0.644319
0.669763
0.697429
0.727156
0.749909
0.765512
0.774359
0.777589
0.776657
0.588325
0.587912
0.585223
0.577912
0.566991
0.557639
0.553682
0.55702
0.568554
0.588693
0.615196
0.642736
0.669188
0.690634
0.707631
0.721389
0.731364
0.737302
0.739492
0.738309
0.615093
0.614658
0.612296
0.605999
0.595954
0.585763
0.578508
0.576388
0.580784
0.592821
0.612275
0.636896
0.662545
0.67696
0.686009
0.69578
0.705314
0.711972
0.714535
0.713094
0.62251
0.622029
0.62013
0.615576
0.608161
0.59975
0.592464
0.588096
0.587698
0.592403
0.603062
0.621277
0.642544
0.650946
0.654231
0.665619
0.678364
0.687753
0.691341
0.689518
0.622347
0.621873
0.620381
0.617169
0.612114
0.605868
0.599538
0.594278
0.590615
0.588713
0.588593
0.59158
0.597668
0.599343
0.607914
0.625242
0.642032
0.653574
0.658058
0.656543
0.62038
0.619957
0.618781
0.616342
0.612732
0.608161
0.602957
0.597532
0.591671
0.583496
0.570249
0.552062
0.531669
0.530581
0.551133
0.577692
0.59927
0.612068
0.616477
0.615023
0.618535
0.618223
0.617377
0.61547
0.61266
0.609169
0.605015
0.600036
0.593211
0.580551
0.553959
0.513743
0.470411
0.47041
0.504961
0.538105
0.55908
0.569426
0.572046
0.571086
0.616424
0.616274
0.615842
0.614633
0.61239
0.609805
0.606834
0.603397
0.598257
0.586253
0.558893
0.506778
0.452657
0.462102
0.499071
0.525437
0.538049
0.542027
0.543992
0.544577
0.612531
0.612535
0.612484
0.611985
0.610865
0.609497
0.60797
0.607876
0.605979
0.600001
0.581125
0.540496
0.503911
0.517597
0.540107
0.551487
0.555708
0.557522
0.558339
0.557937
0.605339
0.605529
0.605894
0.6062
0.606431
0.607062
0.608651
0.611705
0.616438
0.620033
0.616924
0.601398
0.590865
0.596759
0.59828
0.595418
0.593239
0.592632
0.591743
0.590691
0.593214
0.59359
0.594348
0.595499
0.597379
0.600353
0.605373
0.613588
0.62571
0.640768
0.654714
0.663139
0.673672
0.671555
0.65359
0.635765
0.627418
0.623273
0.621714
0.621246
0.573722
0.574403
0.575839
0.578117
0.581542
0.5871
0.595944
0.609807
0.628668
0.654116
0.68055
0.703382
0.726585
0.709978
0.68438
0.668652
0.658482
0.653727
0.64958
0.648459
0.543164
0.544244
0.546425
0.549985
0.555471
0.563773
0.576209
0.594607
0.618723
0.650668
0.682559
0.70518
0.721556
0.70377
0.687686
0.677542
0.675938
0.668384
0.662617
0.662712
0.497624
0.499112
0.50214
0.507218
0.514871
0.525661
0.540392
0.56016
0.585206
0.616643
0.64824
0.667236
0.67167
0.652473
0.658384
0.676052
0.685967
0.682075
0.675335
0.675096
0.433339
0.435171
0.439048
0.445725
0.455333
0.467547
0.481796
0.497325
0.513526
0.534586
0.569632
0.585978
0.571592
0.563804
0.604718
0.650926
0.671897
0.66877
0.664135
0.662781
0.348709
0.350602
0.355132
0.363202
0.373952
0.385394
0.394064
0.39407
0.381622
0.387454
0.438885
0.46736
0.441963
0.456509
0.519587
0.580102
0.60971
0.598549
0.592651
0.590811
0.246847
0.248292
0.253057
0.261625
0.271854
0.279413
0.274713
0.242728
0.185544
0.178665
0.273297
0.326672
0.29742
0.332837
0.408961
0.462583
0.466536
0.458947
0.452811
0.450563
0.136465
0.137425
0.140838
0.149023
0.156938
0.159446
0.138358
0.0673184
-0.0199718
-0.0102974
0.0954848
0.158505
0.149017
0.184685
0.249965
0.25909
0.253906
0.253745
0.253843
0.253457
0.0320614
0.0315786
0.0318971
0.0338737
0.0362687
0.0380966
0.0308746
0.00220648
-0.0456032
-0.0641857
-0.0187766
0.0326686
0.0438912
0.0355888
0.00678738
0.00150858
0.0434549
0.0481132
0.0490767
0.0494255
0.549036
0.729696
0.9406
1.12123
1.26667
1.3826
1.47927
1.56087
1.59731
1.57432
0.878008
1.00733
1.14557
1.26525
1.36656
1.45083
1.51905
1.56739
1.59186
1.60371
1.11207
1.20031
1.29436
1.37774
1.44959
1.50973
1.55749
1.59234
1.61734
1.63508
1.28209
1.34418
1.41006
1.47032
1.52278
1.56728
1.60373
1.63271
1.65628
1.67442
1.41349
1.45901
1.50693
1.55277
1.59326
1.62853
1.65863
1.68358
1.70446
1.7222
1.52133
1.55554
1.59506
1.63196
1.66574
1.69592
1.72223
1.74427
1.76245
1.77976
1.61606
1.64556
1.68053
1.71349
1.74416
1.77194
1.79617
1.81625
1.83198
1.84905
1.70606
1.73578
1.7704
1.80295
1.83301
1.85999
1.88317
1.9019
1.91543
1.93247
1.80228
1.83572
1.87276
1.90669
1.93703
1.96347
1.98563
2.00306
2.01505
2.03246
1.91792
1.95573
1.99465
2.02916
2.05869
2.08359
2.10409
2.12007
2.13162
2.1497
2.0633
2.10197
2.13808
2.16887
2.19466
2.21684
2.23597
2.25156
2.26403
2.28204
2.23828
2.27019
2.29643
2.31889
2.33892
2.35769
2.37545
2.39196
2.40734
2.42542
2.42701
2.44431
2.45945
2.47573
2.49166
2.50623
2.51946
2.53341
2.55097
2.57113
2.60898
2.61843
2.63
2.64083
2.65013
2.65975
2.67056
2.68195
2.69333
2.70869
2.81612
2.81982
2.80489
2.79009
2.78384
2.78954
2.80803
2.83835
2.87054
2.8972
3.12247
2.9876
2.91098
2.86865
2.85125
2.85521
2.88263
2.93904
3.04167
3.26604
1.40235
1.40022
1.39573
1.3871
1.37486
1.36272
1.35247
1.34455
1.33888
1.33556
1.33511
1.33775
1.34277
1.34993
1.35927
1.37077
1.3834
1.39442
1.40052
1.40357
1.32681
1.33266
1.33899
1.34348
1.34594
1.3456
1.34284
1.339
1.33544
1.3331
1.33286
1.33495
1.33852
1.34274
1.3465
1.34834
1.34738
1.34387
1.33869
1.33206
1.31843
1.32072
1.32412
1.32711
1.32917
1.33065
1.33138
1.33103
1.32995
1.32898
1.32905
1.33036
1.33208
1.3333
1.33342
1.33248
1.3309
1.32853
1.32525
1.32232
1.31296
1.31404
1.31587
1.31825
1.32026
1.32167
1.32266
1.32337
1.32371
1.32384
1.32421
1.32488
1.32537
1.32534
1.32485
1.32394
1.32242
1.3203
1.31818
1.31679
1.30782
1.30848
1.30958
1.31128
1.31306
1.31467
1.31594
1.31691
1.31772
1.31841
1.31899
1.31938
1.31944
1.31915
1.31849
1.31735
1.31586
1.31426
1.31291
1.31212
1.30292
1.30338
1.30416
1.30546
1.30694
1.30845
1.30989
1.31114
1.31219
1.31313
1.31387
1.31425
1.31422
1.31379
1.31297
1.31187
1.31066
1.30945
1.30849
1.30797
1.29819
1.29853
1.29915
1.30022
1.30152
1.30288
1.3043
1.3057
1.307
1.30814
1.30904
1.3095
1.30945
1.30898
1.30821
1.30729
1.30632
1.30535
1.30463
1.30424
1.29359
1.29386
1.29435
1.29527
1.29645
1.29775
1.29912
1.30056
1.30201
1.30337
1.30448
1.30505
1.30507
1.3047
1.30409
1.30335
1.30254
1.30178
1.30122
1.30093
1.28905
1.28926
1.28967
1.29049
1.2916
1.29285
1.29421
1.29569
1.29725
1.29882
1.30016
1.30092
1.30112
1.30093
1.3005
1.29992
1.29928
1.29867
1.29824
1.29801
1.2845
1.28466
1.28502
1.28577
1.28684
1.28808
1.28946
1.291
1.29268
1.29444
1.29605
1.29711
1.29758
1.29762
1.29737
1.29697
1.29647
1.296
1.29567
1.29548
1.27988
1.28001
1.28032
1.28103
1.2821
1.28336
1.28482
1.28648
1.28835
1.29038
1.29234
1.29375
1.2945
1.29478
1.29473
1.29449
1.29414
1.29378
1.29353
1.29339
1.27512
1.27522
1.2755
1.2762
1.27729
1.27863
1.28019
1.28201
1.28412
1.28649
1.28887
1.29073
1.29183
1.29239
1.29257
1.2925
1.29229
1.29204
1.29187
1.29176
1.27018
1.27025
1.2705
1.27121
1.27236
1.2738
1.27549
1.27751
1.27993
1.28273
1.28566
1.28802
1.28955
1.29047
1.29093
1.29108
1.29101
1.29087
1.29076
1.29069
1.265
1.26504
1.26528
1.266
1.26722
1.26878
1.27066
1.27296
1.27574
1.27904
1.28263
1.28568
1.28778
1.28912
1.28989
1.29029
1.2904
1.29039
1.29035
1.2903
1.25949
1.2595
1.25973
1.26048
1.2618
1.26353
1.26566
1.26832
1.27163
1.27565
1.28007
1.28389
1.28658
1.28841
1.28957
1.29021
1.29057
1.2907
1.29074
1.29072
1.25355
1.25355
1.25376
1.25452
1.25592
1.25782
1.26023
1.2633
1.26717
1.27198
1.27741
1.28225
1.28579
1.28827
1.28993
1.291
1.29167
1.292
1.29213
1.29212
1.24689
1.24685
1.24709
1.24789
1.24942
1.25156
1.25437
1.25802
1.26271
1.2686
1.2753
1.28131
1.28577
1.28896
1.29121
1.29279
1.29381
1.29438
1.29461
1.29461
1.23918
1.23914
1.2394
1.24028
1.24197
1.24442
1.24771
1.25207
1.25775
1.26494
1.27321
1.28069
1.28631
1.29043
1.29341
1.29553
1.297
1.29784
1.29816
1.29818
1.2299
1.22984
1.23016
1.23119
1.23316
1.23606
1.24004
1.24538
1.25237
1.26124
1.27142
1.28065
1.28762
1.29277
1.29656
1.29934
1.30127
1.30239
1.30281
1.30283
1.21853
1.21845
1.21885
1.22012
1.22252
1.22612
1.23107
1.23771
1.2464
1.25738
1.26991
1.28123
1.28978
1.29614
1.30085
1.30434
1.30676
1.30816
1.30867
1.30869
1.20443
1.20433
1.20487
1.2065
1.20954
1.21411
1.22038
1.22877
1.23966
1.25328
1.26867
1.28247
1.29287
1.30061
1.30638
1.31064
1.31363
1.31532
1.31592
1.31594
1.18671
1.18659
1.18735
1.18952
1.19348
1.19943
1.20756
1.21832
1.23212
1.24906
1.26788
1.28456
1.29707
1.30639
1.31336
1.31852
1.32214
1.32414
1.32482
1.32485
1.16393
1.16381
1.16493
1.16795
1.17331
1.18129
1.19209
1.20613
1.2237
1.24476
1.26765
1.28762
1.30251
1.3136
1.32193
1.32812
1.33244
1.33476
1.33554
1.33555
1.13376
1.13367
1.13544
1.1399
1.1476
1.15883
1.17358
1.19213
1.21457
1.24063
1.2682
1.29186
1.30936
1.3224
1.33225
1.33962
1.34466
1.3473
1.34816
1.34815
1.09216
1.09225
1.09544
1.10284
1.11481
1.13134
1.15195
1.17659
1.20511
1.237
1.26978
1.2974
1.31772
1.33287
1.34437
1.35299
1.35877
1.36172
1.36263
1.36259
1.03165
1.03291
1.04065
1.0545
1.07418
1.09907
1.12785
1.16023
1.19591
1.2343
1.27264
1.30439
1.32761
1.34496
1.35814
1.36796
1.37454
1.3778
1.37866
1.37858
0.959817
0.961827
0.976409
1.00021
1.03064
1.06523
1.10293
1.14361
1.18702
1.23269
1.27762
1.31469
1.34193
1.36244
1.37806
1.38964
1.3974
1.40125
1.40231
1.40229
0.886138
0.892764
0.914278
0.947996
0.988323
1.03229
1.07884
1.1278
1.17903
1.2321
1.28384
1.32644
1.35778
1.3815
1.39972
1.41343
1.42252
1.42624
1.42737
1.4276
0.826901
0.83545
0.861691
0.90216
0.950019
1.00181
1.0562
1.11288
1.17154
1.23171
1.28991
1.33757
1.37253
1.39889
1.41902
1.43408
1.44387
1.44865
1.45055
1.45089
0.778873
0.787988
0.817658
0.862968
0.916573
0.974584
1.03554
1.09897
1.16437
1.23112
1.2953
1.34751
1.38556
1.41407
1.43579
1.45208
1.46323
1.46871
1.47089
1.47127
0.738683
0.748026
0.780007
0.829041
0.887226
0.950327
1.01682
1.08612
1.15752
1.23024
1.29985
1.35613
1.39684
1.42716
1.45014
1.46741
1.47917
1.48531
1.48775
1.48818
0.703772
0.713213
0.746911
0.798974
0.860924
0.928331
0.999615
1.07407
1.15087
1.229
1.30358
1.36352
1.40655
1.43834
1.46227
1.48019
1.49247
1.49909
1.50169
1.50214
0.672533
0.68202
0.717051
0.771641
0.836772
0.90789
0.983393
1.06246
1.14416
1.22729
1.30649
1.36982
1.41494
1.44798
1.47265
1.491
1.50359
1.51052
1.51318
1.51364
0.643764
0.653312
0.689472
0.746241
0.814109
0.888483
0.967726
1.05096
1.13715
1.22497
1.30857
1.37515
1.42225
1.45644
1.48174
1.50037
1.51309
1.52016
1.52278
1.52329
0.616689
0.626296
0.663459
0.722134
0.792466
0.869726
0.952307
1.03932
1.12967
1.22192
1.30979
1.3796
1.4287
1.46405
1.48996
1.5089
1.52175
1.52887
1.53152
1.53185
0.590799
0.600513
0.638619
0.698903
0.771486
0.851335
0.936926
1.02738
1.12158
1.21804
1.31011
1.38322
1.43443
1.47106
1.49768
1.51696
1.52994
1.53703
1.53965
1.53996
0.5657
0.575605
0.614542
0.676384
0.750946
0.833122
0.921433
1.01502
1.11279
1.21326
1.3095
1.38606
1.43958
1.47764
1.5051
1.52482
1.53797
1.54505
1.54758
1.54789
0.541208
0.551353
0.591063
0.654405
0.730726
0.814987
0.905752
1.00219
1.10327
1.20754
1.30792
1.3881
1.44418
1.4839
1.51235
1.53261
1.54597
1.55302
1.55541
1.55567
0.517269
0.527642
0.568167
0.632826
0.710756
0.796896
0.889859
0.988877
1.09298
1.20085
1.30533
1.38932
1.44822
1.48986
1.51949
1.54037
1.55394
1.56089
1.56311
1.56329
0.49378
0.504473
0.545727
0.61163
0.691016
0.778834
0.873759
0.975092
1.08195
1.19318
1.30166
1.38959
1.45165
1.49554
1.52655
1.54813
1.56187
1.56866
1.57065
1.57071
0.470794
0.48178
0.523793
0.590823
0.671525
0.760838
0.857506
0.960888
1.07022
1.18452
1.29683
1.38881
1.45436
1.5009
1.53358
1.55592
1.56971
1.57619
1.57788
1.57785
0.448287
0.459589
0.502386
0.570447
0.652327
0.742959
0.841156
0.946338
1.05784
1.17491
1.29083
1.38689
1.45621
1.50585
1.54063
1.56387
1.57752
1.58342
1.58472
1.5846
0.426452
0.437996
0.481542
0.550549
0.633484
0.725277
0.824784
0.931524
1.04491
1.16442
1.28365
1.38371
1.457
1.51023
1.54775
1.57224
1.5855
1.59036
1.59105
1.59082
0.405159
0.417051
0.461301
0.531166
0.615037
0.707842
0.808491
0.916536
1.03153
1.15316
1.27531
1.37915
1.45653
1.51379
1.55484
1.5814
1.59432
1.59736
1.59685
1.59644
0.384577
0.396786
0.441698
0.512356
0.597073
0.690744
0.792362
0.901502
1.01781
1.14119
1.26586
1.37317
1.45457
1.51613
1.56154
1.59157
1.60519
1.60598
1.60275
1.6012
0.364656
0.377161
0.422791
0.494177
0.579635
0.674054
0.776483
0.886506
1.00388
1.12866
1.25541
1.36569
1.45096
1.51676
1.56701
1.60218
1.61915
1.61974
1.61249
1.60244
0.345477
0.358223
0.40448
0.476476
0.562513
0.657485
0.760511
0.87113
0.989257
1.11505
1.24337
1.35608
1.4451
1.51506
1.57001
1.61163
1.63527
1.6394
1.63045
1.62133
0.327099
0.34006
0.386764
0.459299
0.545722
0.641036
0.744468
0.855362
0.973912
1.10025
1.2296
1.34403
1.43631
1.5103
1.56802
1.61425
1.64111
1.65037
1.61418
1.56022
0.309788
0.323447
0.369748
0.442706
0.529151
0.624575
0.728311
0.839323
0.957913
1.08433
1.21406
1.32941
1.42366
1.50224
1.55914
1.5987
1.62668
1.61691
1.5596
1.4938
0.293236
0.307734
0.353622
0.427315
0.513132
0.60858
0.711821
0.823077
0.941409
1.06749
1.19679
1.31212
1.40611
1.49203
1.54225
1.59531
1.56866
1.52881
1.45895
1.38944
0.307223
0.325289
0.373943
0.4518
0.542496
0.641723
0.750278
0.864446
0.985781
1.11517
1.23802
1.34009
1.4257
1.5169
1.5673
1.48702
1.44296
1.38086
1.30738
1.25848
0.282788
0.299195
0.334841
0.402955
0.488318
0.58323
0.68658
0.797153
0.914592
1.03926
1.16642
1.27962
1.37003
1.44989
1.52142
1.52359
1.40313
1.31953
1.25663
1.17222
0.262648
0.278343
0.319724
0.389263
0.474881
0.569385
0.671533
0.781149
0.897524
1.02064
1.14585
1.25658
1.34389
1.41096
1.43829
1.36864
1.22739
1.13036
1.05423
0.963837
0.242088
0.25464
0.300506
0.371342
0.457155
0.551828
0.653898
0.763125
0.878503
0.999966
1.12216
1.22821
1.30833
1.35975
1.33813
1.20929
1.05457
0.934427
0.834544
0.694529
0.218313
0.231412
0.279321
0.351298
0.437448
0.532141
0.634066
0.742637
0.856816
0.976264
1.09494
1.19561
1.26785
1.29945
1.24164
1.05668
0.870367
0.71177
0.565146
0.36439
0.195616
0.208335
0.257483
0.330634
0.417296
0.511945
0.613474
0.721142
0.833874
0.950948
1.06573
1.1605
1.2242
1.22634
1.11698
0.912502
0.692778
0.482744
0.295878
-0.121132
0.17293
0.185241
0.234884
0.308908
0.395986
0.490659
0.591784
0.698535
0.80971
0.924177
1.03475
1.12299
1.17624
1.14413
0.992896
0.785003
0.558033
0.335123
0.14433
-0.165414
0.14936
0.161513
0.211313
0.285874
0.373245
0.46795
0.568708
0.674565
0.784127
0.895819
1.00194
1.08318
1.12298
1.07242
0.881084
0.681652
0.474902
0.299195
0.224638
0.188527
0.124443
0.136427
0.186401
0.26124
0.3487
0.443277
0.543512
0.648247
0.755866
0.864302
0.965328
1.03896
1.06454
0.983752
0.781566
0.594886
0.42472
0.311943
0.274562
0.262991
0.0979891
0.10991
0.159994
0.234999
0.322423
0.416703
0.516204
0.619557
0.724861
0.829534
0.924783
0.990617
0.994063
0.878898
0.69148
0.518375
0.373608
0.313765
0.299832
0.294774
0.0699208
0.0816435
0.132035
0.207158
0.294446
0.388254
0.48681
0.58849
0.691105
0.79156
0.880343
0.938001
0.914994
0.779731
0.605896
0.443819
0.338663
0.301957
0.308379
0.308912
0.0402882
0.051965
0.102561
0.177784
0.264838
0.358013
0.455389
0.555108
0.654655
0.750404
0.832262
0.879479
0.840729
0.686229
0.527453
0.383436
0.336926
0.322863
0.318618
0.318362
0.00947943
0.021176
0.0717987
0.147078
0.233769
0.326134
0.422089
0.519549
0.615636
0.706216
0.780826
0.816473
0.771729
0.604382
0.457322
0.353598
0.304974
0.319712
0.323445
0.324082
-0.022022
-0.0103855
0.0402249
0.115378
0.201571
0.292919
0.387209
0.482101
0.574349
0.659361
0.726365
0.75287
0.687879
0.530036
0.398727
0.325066
0.323299
0.325333
0.327811
0.329017
-0.053368
-0.042012
0.00860286
0.0832181
0.168746
0.258851
0.3512
0.443221
0.531287
0.61037
0.669572
0.685337
0.594433
0.462287
0.354463
0.333648
0.32176
0.324362
0.330697