/*--------------------------------*- C++ -*----------------------------------*\
  =========                 |
  \\      /  F ield         | OpenFOAM: The Open Source CFD Toolbox
   \\    /   O peration     | Website:  https://openfoam.org
    \\  /    A nd           | Version:  9
     \\/     M anipulation  |
\*---------------------------------------------------------------------------*/
FoamFile
{
    format      ascii;
    class       volVectorField;
    location    "32";
    object      U;
}
// * * * * * * * * * * * * * * * * * * * * * * * * * * * * * * * * * * * * * //

dimensions      [0 1 -1 0 0 0 0];

internalField   nonuniform List<vector> 
8800
(
(0.980156 -0.0915211 0)
(1.00234 -0.0587221 0)
(0.999611 -0.0321232 0)
(0.999997 -0.0165142 0)
(1.00004 -0.00882716 0)
(1.00002 -0.00507428 0)
(0.999992 -0.00297861 0)
(0.99998 -0.00169097 0)
(0.999977 -0.000811737 0)
(1.00006 -0.000123765 0)
(0.999985 0.000575232 0)
(1 0.00133141 0)
(1.00001 0.00236392 0)
(1.00002 0.00397468 0)
(1.00004 0.00672525 0)
(1.00004 0.012034 0)
(0.99987 0.023087 0)
(0.999067 0.0431536 0)
(1.00722 0.0790275 0)
(0.775024 0.0478396 0)
(0.358976 -0.014749 0)
(1.04649 -0.0724941 0)
(1.08849 -0.0660308 0)
(1.04946 -0.0509225 0)
(1.02553 -0.0377002 0)
(1.01267 -0.0258893 0)
(1.00648 -0.0167033 0)
(1.00355 -0.0102472 0)
(1.00213 -0.0056528 0)
(1.00148 -0.00208608 0)
(1.00136 0.00110017 0)
(1.00173 0.004404 0)
(1.00271 0.00830568 0)
(1.00473 0.0136373 0)
(1.00897 0.0213279 0)
(1.01797 0.0318279 0)
(1.03586 0.044618 0)
(1.06749 0.0580785 0)
(1.09473 0.0699571 0)
(0.845688 0.0554993 0)
(0.217756 -0.00138146 0)
(1.07567 -0.0506662 0)
(1.09942 -0.0489541 0)
(1.06438 -0.0400412 0)
(1.03983 -0.0325813 0)
(1.02369 -0.0253692 0)
(1.01392 -0.0181833 0)
(1.00843 -0.0116148 0)
(1.00559 -0.00590092 0)
(1.00444 -0.00064454 0)
(1.00478 0.00444296 0)
(1.00665 0.00972944 0)
(1.01058 0.0157234 0)
(1.01789 0.0225071 0)
(1.03051 0.0296329 0)
(1.05053 0.0367363 0)
(1.08014 0.0445305 0)
(1.10576 0.0518727 0)
(0.94341 0.0409786 0)
(0.21728 0.00140105 0)
(0.1766 -0.000629174 0)
(1.01936 -0.0354783 0)
(1.1057 -0.0414311 0)
(1.07794 -0.0364142 0)
(1.05236 -0.0303649 0)
(1.03509 -0.0244983 0)
(1.02323 -0.0187568 0)
(1.01544 -0.0128286 0)
(1.01086 -0.00678965 0)
(1.00885 -0.000602526 0)
(1.00942 0.00551777 0)
(1.01252 0.0114172 0)
(1.01848 0.0172058 0)
(1.02808 0.0228088 0)
(1.04231 0.0283823 0)
(1.06316 0.034192 0)
(1.09399 0.0401133 0)
(1.09462 0.0416781 0)
(0.83052 0.0227314 0)
(0.175791 0.000644878 0)
(0.154678 -0.000462829 0)
(0.958093 -0.0256982 0)
(1.10435 -0.0351367 0)
(1.08802 -0.0327061 0)
(1.06112 -0.0282191 0)
(1.04304 -0.0232848 0)
(1.03067 -0.0180431 0)
(1.0221 -0.0125659 0)
(1.01657 -0.00671584 0)
(1.01395 -0.000333238 0)
(1.01464 0.00606849 0)
(1.01848 0.0119145 0)
(1.02528 0.017263 0)
(1.03542 0.0223288 0)
(1.05019 0.0271937 0)
(1.07216 0.0316525 0)
(1.1012 0.0355535 0)
(1.07003 0.0338112 0)
(0.743137 0.0143847 0)
(0.15347 0.000480602 0)
(0.139989 -0.00033469 0)
(0.901049 -0.0193215 0)
(1.09671 -0.0302236 0)
(1.09608 -0.029352 0)
(1.06874 -0.0255756 0)
(1.04989 -0.0215247 0)
(1.03695 -0.016933 0)
(1.02798 -0.011798 0)
(1.02207 -0.006172 0)
(1.01914 9.5314e-05 0)
(1.01982 0.00640194 0)
(1.02389 0.0120048 0)
(1.03095 0.0169824 0)
(1.04147 0.0214773 0)
(1.05689 0.025466 0)
(1.0797 0.0290297 0)
(1.10359 0.0317999 0)
(1.03853 0.027894 0)
(0.676735 0.0102097 0)
(0.138292 0.000355807 0)
(0.129257 -0.000252788 0)
(0.851181 -0.0149002 0)
(1.08431 -0.0260974 0)
(1.10172 -0.0264689 0)
(1.07551 -0.0231762 0)
(1.0561 -0.0195794 0)
(1.04273 -0.0155054 0)
(1.03339 -0.0107638 0)
(1.02722 -0.00538589 0)
(1.02408 0.000638664 0)
(1.02468 0.0066637 0)
(1.02879 0.0119624 0)
(1.03602 0.0165317 0)
(1.04686 0.0204577 0)
(1.06272 0.0238628 0)
(1.08601 0.0269455 0)
(1.10301 0.0288137 0)
(1.00431 0.0232444 0)
(0.625286 0.00776813 0)
(0.126965 0.000278527 0)
(0.121096 -0.000193494 0)
(0.808782 -0.0116736 0)
(1.06894 -0.0224262 0)
(1.10508 -0.023762 0)
(1.08157 -0.0209547 0)
(1.06175 -0.0176308 0)
(1.04812 -0.0138852 0)
(1.03851 -0.00950757 0)
(1.03204 -0.00446788 0)
(1.02868 0.00128254 0)
(1.02917 0.00702657 0)
(1.0333 0.0119377 0)
(1.04065 0.0160223 0)
(1.05163 0.019451 0)
(1.06774 0.0224494 0)
(1.09139 0.0252122 0)
(1.09961 0.0261956 0)
(0.96995 0.019515 0)
(0.584367 0.00614881 0)
(0.118082 0.000224894 0)
(0.114802 -0.000148343 0)
(0.773186 -0.00923503 0)
(1.05212 -0.0191699 0)
(1.10732 -0.0212133 0)
(1.08726 -0.0187512 0)
(1.06699 -0.0156019 0)
(1.05308 -0.0120993 0)
(1.04329 -0.00801873 0)
(1.03663 -0.00330547 0)
(1.03307 0.00208507 0)
(1.03339 0.00742175 0)
(1.03742 0.0118838 0)
(1.04474 0.0154943 0)
(1.05578 0.0185068 0)
(1.07219 0.0211754 0)
(1.09565 0.023664 0)
(1.09365 0.023918 0)
(0.936906 0.01655 0)
(0.551052 0.00500665 0)
(0.110909 0.000186747 0)
(0.10993 -0.000112657 0)
(0.74354 -0.00730985 0)
(1.03486 -0.0162109 0)
(1.10853 -0.0188052 0)
(1.0926 -0.0167551 0)
(1.072 -0.0137851 0)
(1.05779 -0.0103925 0)
(1.04783 -0.00644914 0)
(1.04097 -0.00198399 0)
(1.03714 0.00304164 0)
(1.03726 0.00794304 0)
(1.04117 0.0119711 0)
(1.0484 0.0152267 0)
(1.05947 0.0179343 0)
(1.07618 0.0202814 0)
(1.09868 0.0223659 0)
(1.08545 0.0218748 0)
(0.905882 0.014169 0)
(0.523392 0.00416918 0)
(0.10497 0.000159477 0)
(0.106205 -8.29818e-05 0)
(0.719109 -0.00572164 0)
(1.01813 -0.0134777 0)
(1.10878 -0.0163348 0)
(1.09762 -0.0146029 0)
(1.07679 -0.0117417 0)
(1.06232 -0.00848185 0)
(1.05213 -0.00473597 0)
(1.04504 -0.000509837 0)
(1.04097 0.00420437 0)
(1.0408 0.00871163 0)
(1.04447 0.0123066 0)
(1.0516 0.0151029 0)
(1.06272 0.0174 0)
(1.07961 0.0194288 0)
(1.10033 0.0211253 0)
(1.07551 0.0199957 0)
(0.877194 0.0122427 0)
(0.500041 0.00353776 0)
(0.0999401 0.000140025 0)
(0.103443 -5.73998e-05 0)
(0.699333 -0.00435099 0)
(1.00265 -0.0109187 0)
(1.10843 -0.0138524 0)
(1.10244 -0.0123279 0)
(1.08143 -0.00951061 0)
(1.06659 -0.00638113 0)
(1.05615 -0.00279484 0)
(1.0488 0.00122874 0)
(1.04441 0.00561269 0)
(1.0439 0.00965874 0)
(1.0473 0.0127941 0)
(1.05427 0.0151243 0)
(1.06539 0.0169628 0)
(1.08252 0.0186889 0)
(1.10113 0.0200576 0)
(1.06438 0.0183425 0)
(0.850912 0.0106922 0)
(0.480055 0.00306201 0)
(0.0955869 0.000127503 0)
(0.101534 -3.29104e-05 0)
(0.683853 -0.00309739 0)
(0.98887 -0.00842862 0)
(1.10752 -0.0112809 0)
(1.10688 -0.0100343 0)
(1.08591 -0.00735352 0)
(1.07076 -0.00422035 0)
(1.06005 -0.00066536 0)
(1.05237 0.00320585 0)
(1.04754 0.00730481 0)
(1.0466 0.01096 0)
(1.04968 0.0136359 0)
(1.05645 0.0155821 0)
(1.06755 0.0171091 0)
(1.08488 0.0183582 0)
(1.1009 0.0191755 0)
(1.05225 0.0168414 0)
(0.826928 0.00939851 0)
(0.462743 0.00269039 0)
(0.091724 0.000119609 0)
(0.100441 -7.49374e-06 0)
(0.672543 -0.00190057 0)
(0.977335 -0.00592272 0)
(1.10626 -0.00842067 0)
(1.11087 -0.00733282 0)
(1.0904 -0.00473937 0)
(1.07497 -0.00161758 0)
(1.06394 0.001876 0)
(1.05589 0.00558842 0)
(1.05059 0.00939113 0)
(1.04911 0.0125998 0)
(1.05176 0.0147231 0)
(1.05827 0.0161098 0)
(1.06931 0.0171444 0)
(1.08642 0.0179797 0)
(1.09952 0.0183623 0)
(1.03939 0.0154292 0)
(0.805177 0.00832914 0)
(0.447611 0.0024088 0)
(0.0882218 0.000115855 0)
(0.100148 9.80049e-06 0)
(0.665233 -0.000715763 0)
(0.96849 -0.00343174 0)
(1.10532 -0.00539116 0)
(1.11477 -0.00423539 0)
(1.09473 -0.00166082 0)
(1.07891 0.00137498 0)
(1.06747 0.00474177 0)
(1.05895 0.00833922 0)
(1.05306 0.0119302 0)
(1.05091 0.0147422 0)
(1.053 0.0163618 0)
(1.05918 0.0171457 0)
(1.07014 0.0175027 0)
(1.08734 0.0178602 0)
(1.09701 0.0176464 0)
(1.02631 0.0142994 0)
(0.785464 0.0075001 0)
(0.434204 0.00221008 0)
(0.0849671 0.000116511 0)
(0.10069 5.41702e-05 0)
(0.661938 0.000467435 0)
(0.962464 -0.000849505 0)
(1.10485 -0.00222916 0)
(1.11865 -0.00115849 0)
(1.09908 0.00137094 0)
(1.08293 0.00454373 0)
(1.07116 0.00804414 0)
(1.06214 0.0116661 0)
(1.05549 0.0150624 0)
(1.05255 0.0174253 0)
(1.05394 0.0184881 0)
(1.05952 0.0187377 0)
(1.07023 0.0186104 0)
(1.08715 0.0182845 0)
(1.09342 0.0174996 0)
(1.01268 0.0134256 0)
(0.767431 0.00686618 0)
(0.42214 0.00207799 0)
(0.0818536 0.000117497 0)
(0.102203 7.75567e-05 0)
(0.662697 0.00163338 0)
(0.959587 0.00172228 0)
(1.10491 0.00117464 0)
(1.12239 0.00227295 0)
(1.10357 0.00486036 0)
(1.08718 0.0082603 0)
(1.07496 0.0119623 0)
(1.06526 0.0156555 0)
(1.05769 0.0189128 0)
(1.05371 0.0208714 0)
(1.05422 0.0213445 0)
(1.05923 0.0209677 0)
(1.06949 0.0202195 0)
(1.08592 0.0193041 0)
(1.08808 0.0176376 0)
(0.998583 0.0129661 0)
(0.750691 0.00662328 0)
(0.410851 0.0020718 0)
(0.0788179 0.000118617 0)
(0.104664 0.000120906 0)
(0.667302 0.00279147 0)
(0.960254 0.00426552 0)
(1.10633 0.0047719 0)
(1.12641 0.0062819 0)
(1.1083 0.00920394 0)
(1.09164 0.0128797 0)
(1.07878 0.0167807 0)
(1.06817 0.0205417 0)
(1.05946 0.023646 0)
(1.05425 0.0251348 0)
(1.05374 0.0249693 0)
(1.05798 0.0238355 0)
(1.0677 0.0223886 0)
(1.08346 0.0208694 0)
(1.08143 0.0184223 0)
(0.984173 0.0132972 0)
(0.734432 0.00691895 0)
(0.399433 0.00224346 0)
(0.0756694 0.000126476 0)
(0.108147 0.000164406 0)
(0.67565 0.00391666 0)
(0.964205 0.00663185 0)
(1.10974 0.00829643 0)
(1.13141 0.0104755 0)
(1.11364 0.0139461 0)
(1.09653 0.0180219 0)
(1.08296 0.0222823 0)
(1.07136 0.0263529 0)
(1.06127 0.0294763 0)
(1.05448 0.0305592 0)
(1.05267 0.0297493 0)
(1.0559 0.0278809 0)
(1.06502 0.0256789 0)
(1.07978 0.0234508 0)
(1.07364 0.0203501 0)
(0.969005 0.0145693 0)
(0.717573 0.00779169 0)
(0.386867 0.00259427 0)
(0.0721466 0.000144695 0)
(0.11273 0.000217418 0)
(0.687701 0.00522188 0)
(0.971674 0.00929525 0)
(1.11519 0.0120848 0)
(1.13755 0.0148529 0)
(1.11976 0.0189812 0)
(1.10203 0.0237774 0)
(1.08756 0.0287746 0)
(1.07462 0.0333964 0)
(1.06271 0.0366728 0)
(1.0541 0.0374026 0)
(1.05074 0.0359072 0)
(1.05278 0.0332813 0)
(1.06121 0.0303432 0)
(1.07484 0.0273334 0)
(1.06425 0.0232962 0)
(0.952405 0.0166305 0)
(0.699008 0.00910833 0)
(0.372306 0.00306451 0)
(0.0680268 0.000168801 0)
(0.118706 0.00029157 0)
(0.703965 0.00691428 0)
(0.983143 0.0126218 0)
(1.12283 0.0167552 0)
(1.14486 0.0203107 0)
(1.12708 0.0253031 0)
(1.10872 0.0311175 0)
(1.09304 0.0370521 0)
(1.07834 0.0422463 0)
(1.06418 0.0455665 0)
(1.0533 0.0457498 0)
(1.04809 0.043411 0)
(1.04881 0.0398894 0)
(1.0563 0.0361135 0)
(1.06832 0.0322351 0)
(1.05289 0.0270407 0)
(0.933863 0.0194 0)
(0.677684 0.0107863 0)
(0.355113 0.00362771 0)
(0.0631507 0.000200273 0)
(0.126589 0.000400997 0)
(0.725354 0.00925439 0)
(0.999321 0.0169266 0)
(1.1337 0.0227869 0)
(1.15411 0.0277073 0)
(1.13606 0.0340516 0)
(1.11669 0.0410668 0)
(1.09924 0.0479054 0)
(1.08213 0.0534822 0)
(1.06519 0.0564951 0)
(1.05167 0.0556884 0)
(1.04444 0.0521123 0)
(1.0436 0.0475185 0)
(1.05 0.042782 0)
(1.06007 0.0379633 0)
(1.03955 0.0316994 0)
(0.912758 0.0229017 0)
(0.652614 0.0126772 0)
(0.334941 0.0042258 0)
(0.0574688 0.000228957 0)
(0.137177 0.000566833 0)
(0.753184 0.0125887 0)
(1.02124 0.0226418 0)
(1.14892 0.0305276 0)
(1.16655 0.037497 0)
(1.14712 0.0455198 0)
(1.126 0.0539207 0)
(1.10601 0.061603 0)
(1.08586 0.0674096 0)
(1.06553 0.0698529 0)
(1.04888 0.0677512 0)
(1.0394 0.0625571 0)
(1.03716 0.0564142 0)
(1.04236 0.0506808 0)
(1.05035 0.0451929 0)
(1.02416 0.0378359 0)
(0.887671 0.0272041 0)
(0.622991 0.0148245 0)
(0.311475 0.0048954 0)
(0.0509401 0.000258778 0)
(0.151681 0.000831453 0)
(0.789364 0.0175333 0)
(1.05004 0.0305347 0)
(1.16924 0.0405963 0)
(1.18285 0.0497801 0)
(1.16078 0.0598293 0)
(1.13671 0.0697116 0)
(1.11327 0.0782467 0)
(1.08937 0.0842508 0)
(1.06509 0.0861292 0)
(1.04488 0.0828386 0)
(1.03277 0.0762007 0)
(1.02886 0.0684843 0)
(1.03333 0.0612469 0)
(1.0393 0.0547388 0)
(1.00518 0.0456608 0)
(0.856883 0.0320741 0)
(0.588358 0.017258 0)
(0.284392 0.00563472 0)
(0.0435429 0.000286048 0)
(0.172204 0.00129241 0)
(0.837082 0.0252853 0)
(1.08774 0.0423224 0)
(1.19488 0.0549711 0)
(1.20306 0.0663647 0)
(1.17688 0.0782231 0)
(1.14869 0.0893478 0)
(1.12097 0.0985755 0)
(1.09265 0.104584 0)
(1.06391 0.105756 0)
(1.03985 0.101268 0)
(1.02486 0.093364 0)
(1.01887 0.0843597 0)
(1.0221 0.0756034 0)
(1.02498 0.0667739 0)
(0.979848 0.0544922 0)
(0.819732 0.0374711 0)
(0.548513 0.0200768 0)
(0.253448 0.00643172 0)
(0.0353205 0.000307587 0)
(0.202063 0.00232991 0)
(0.901994 0.0386757 0)
(1.13727 0.0618155 0)
(1.22551 0.077217 0)
(1.22624 0.0906014 0)
(1.19459 0.10344 0)
(1.16147 0.115049 0)
(1.12872 0.12415 0)
(1.09536 0.129315 0)
(1.0618 0.128996 0)
(1.03373 0.122697 0)
(1.01572 0.113134 0)
(1.00724 0.102544 0)
(1.00775 0.0917508 0)
(1.00461 0.0797105 0)
(0.946944 0.0635949 0)
(0.776731 0.0435777 0)
(0.50333 0.023391 0)
(0.219072 0.00731037 0)
(0.0265959 0.00031883 0)
(0.242884 0.00861377 1.45666e-19)
(0.988246 0.0657838 1.25337e-19)
(1.19665 0.0951606 -4.26884e-20)
(1.2588 0.111482 0)
(1.2496 0.126879 -9.70368e-34)
(1.21209 0.139003 1.38802e-20)
(1.17376 0.149508 -2.32133e-20)
(1.1355 0.157035 0)
(1.09668 0.160146 4.37559e-34)
(1.05788 0.157294 -2.50631e-20)
(1.02538 0.148342 0)
(1.00374 0.136389 -2.8127e-20)
(0.991801 0.123549 -8.18832e-20)
(0.987208 0.110126 -3.83199e-20)
(0.975441 0.0951564 -1.13597e-20)
(0.905579 0.0766707 -6.6999e-21)
(0.724116 0.0532963 0)
(0.448812 0.0286647 4.67694e-21)
(0.181833 0.0094817 5.52595e-21)
(0.018586 0.000711688 9.97347e-20)
(0.270519 0.0242333 1.31384e-19)
(1.05867 0.10841 5.10769e-22)
(1.24421 0.143226 1.251e-20)
(1.28855 0.160033 0)
(1.26973 0.174472 -5.28268e-20)
(1.22728 0.184746 -5.77434e-20)
(1.18391 0.193344 -2.43032e-20)
(1.14007 0.198743 -8.07771e-20)
(1.09546 0.19937 0)
(1.05063 0.193463 1.0734e-19)
(1.01239 0.181071 1.03383e-19)
(0.985431 0.165783 3.00701e-20)
(0.96769 0.149795 1.06576e-19)
(0.954927 0.133336 1.46852e-19)
(0.932155 0.116032 0)
(0.85309 0.0958538 2.0428e-19)
(0.66485 0.0681324 2.92683e-19)
(0.39467 0.0377086 3.24938e-19)
(0.150265 0.0134457 -3.7128e-19)
(0.0123888 0.00109797 -6.99621e-21)
(0.270092 0.0395356 0)
(1.10191 0.164031 2.87765e-20)
(1.27586 0.202796 0)
(1.31089 0.219645 -8.48918e-20)
(1.2851 0.230784 0)
(1.23863 0.237757 -1.20074e-19)
(1.1906 0.242967 5.11379e-20)
(1.14145 0.244967 -1.68727e-19)
(1.09124 0.241951 -1.57218e-21)
(1.04049 0.231993 5.66575e-20)
(0.9965 0.215555 2.24662e-19)
(0.964254 0.196817 -3.12399e-22)
(0.941103 0.178206 -7.68807e-20)
(0.922366 0.160202 -1.37072e-19)
(0.89435 0.142262 1.61311e-19)
(0.815201 0.120555 -2.84807e-19)
(0.632966 0.0876529 -3.74058e-20)
(0.377552 0.050726 0)
(0.149147 0.0197099 2.09081e-23)
(0.0132682 0.00186972 0)
(0.263126 0.0530142 5.23685e-19)
(1.1244 0.22292 -2.33286e-19)
(1.29528 0.267231 -1.50184e-19)
(1.32487 0.284098 4.39822e-20)
(1.29436 0.291798 -7.18563e-20)
(1.24502 0.294979 2.55335e-19)
(1.19316 0.296181 1.08532e-19)
(1.13943 0.294073 0)
(1.08412 0.286811 -2.98582e-19)
(1.02789 0.272363 0)
(0.978592 0.251818 -1.19283e-19)
(0.94165 0.230029 -1.41357e-19)
(0.914211 0.209405 -8.31885e-20)
(0.891699 0.190322 -9.88774e-20)
(0.861636 0.171609 0)
(0.787262 0.148107 0)
(0.617413 0.111462 -2.43498e-19)
(0.380848 0.0684643 4.79243e-20)
(0.160792 0.0290015 -2.82746e-20)
(0.0174307 0.00335881 -3.30547e-20)
(0.25568 0.0650679 -3.17117e-19)
(1.13372 0.281618 0)
(1.30583 0.332589 3.62036e-19)
(1.33169 0.349821 1.36822e-19)
(1.29785 0.354286 1.57061e-19)
(1.24635 0.353727 0)
(1.19146 0.35088 1.12442e-19)
(1.13393 0.344527 1.90869e-19)
(1.07427 0.332854 1.56879e-19)
(1.01319 0.313891 2.63534e-19)
(0.959265 0.28938 0)
(0.918465 0.264825 -3.04068e-19)
(0.887789 0.242536 -1.79123e-19)
(0.862723 0.222618 -1.04888e-19)
(0.831883 0.203363 6.29476e-19)
(0.762354 0.178787 7.4666e-20)
(0.608225 0.138441 3.50966e-19)
(0.389201 0.0890342 -1.65636e-18)
(0.175186 0.0405635 9.83895e-19)
(0.0224281 0.00548153 -1.18587e-18)
(0.248974 0.0760324 -2.86769e-19)
(1.13481 0.338253 6.15769e-20)
(1.30974 0.396982 -5.26786e-20)
(1.33295 0.414822 -1.82149e-19)
(1.29655 0.416328 -1.58159e-19)
(1.24332 0.412261 1.73899e-21)
(1.18596 0.405561 -1.20877e-19)
(1.1253 0.395104 2.01586e-19)
(1.06193 0.379156 -3.36672e-19)
(0.996719 0.355803 0)
(0.938855 0.327516 -1.40286e-19)
(0.894953 0.300309 -1.59585e-21)
(0.861899 0.276418 -1.9392e-19)
(0.835176 0.255622 0)
(0.804353 0.235714 -1.35571e-19)
(0.739663 0.209809 -3.21057e-19)
(0.599594 0.166521 8.55813e-19)
(0.39612 0.110633 -8.41599e-19)
(0.186908 0.0529231 1.19652e-18)
(0.0266138 0.00783963 -1.24326e-18)
(0.243588 0.0862682 -4.05766e-22)
(1.13084 0.392219 -6.16444e-20)
(1.30907 0.45982 -2.15298e-19)
(1.32995 0.477999 9.30845e-20)
(1.29152 0.476864 -8.33857e-20)
(1.23682 0.469561 0)
(1.1774 0.459295 -1.23228e-19)
(1.11408 0.445 -2.1383e-19)
(1.04755 0.425014 -1.77902e-19)
(0.978777 0.397482 0)
(0.917602 0.365512 -1.47791e-19)
(0.871185 0.335701 -1.7554e-19)
(0.836383 0.310101 2.08882e-19)
(0.808563 0.288257 -1.24175e-19)
(0.777997 0.267618 -5.85934e-19)
(0.717524 0.240384 3.47751e-19)
(0.589285 0.194466 1.03668e-19)
(0.398152 0.131972 0)
(0.193571 0.0648322 -1.14746e-18)
(0.0294222 0.0100996 -4.19967e-20)
(0.239491 0.0960771 -3.79029e-20)
(1.12387 0.443385 6.32541e-20)
(1.3049 0.520325 1.13835e-19)
(1.32376 0.538768 3.03229e-19)
(1.28364 0.535287 -3.45431e-19)
(1.22767 0.525065 3.03453e-19)
(1.16649 0.511537 2.64097e-19)
(1.10089 0.49371 -3.42456e-19)
(1.03161 0.46997 1.01341e-19)
(0.959703 0.438467 -6.46536e-19)
(0.895662 0.402888 -1.62517e-19)
(0.847197 0.370376 0)
(0.811091 0.342933 2.24887e-19)
(0.782634 0.319852 2.65233e-19)
(0.752566 0.29825 3.14036e-19)
(0.695607 0.269502 -3.74536e-19)
(0.576289 0.220904 -1.10614e-19)
(0.394389 0.151527 1.30334e-19)
(0.194088 0.0749896 0)
(0.0304303 0.0118804 -9.03557e-20)
(0.236518 0.105597 3.8282e-19)
(1.11533 0.491867 -2.59308e-19)
(1.29817 0.577997 -1.19971e-19)
(1.3152 0.596812 2.10878e-19)
(1.27364 0.591263 -1.78697e-19)
(1.21656 0.578418 -4.00964e-21)
(1.15386 0.561962 -2.84345e-19)
(1.08628 0.540932 -1.2276e-19)
(1.01454 0.513727 -3.06786e-19)
(0.939807 0.478475 2.34417e-22)
(0.873182 0.439329 -5.14662e-19)
(0.822989 0.403988 4.12211e-19)
(0.785904 0.374455 -2.43643e-19)
(0.757098 0.349873 2.87943e-19)
(0.727588 0.326925 0)
(0.673465 0.296427 -2.01364e-19)
(0.560565 0.244447 -8.48077e-22)
(0.385459 0.167722 -5.61975e-19)
(0.190148 0.0826114 -8.28041e-20)
(0.0300169 0.0130246 0)
(0.234511 0.114926 0)
(1.10604 0.537848 -2.73804e-19)
(1.28965 0.632778 -2.4533e-19)
(1.30493 0.652041 -2.20732e-19)
(1.2621 0.64463 -1.97288e-19)
(1.20405 0.629448 0)
(1.14003 0.610377 -1.44229e-19)
(1.07068 0.586472 -1.17256e-21)
(0.996719 0.556114 6.56261e-19)
(0.919365 0.517345 -9.06326e-20)
(0.850331 0.474677 -3.69145e-19)
(0.798531 0.436367 2.17234e-19)
(0.76065 0.404489 -2.02878e-21)
(0.731645 0.378104 3.06771e-19)
(0.702648 0.353519 1.84761e-19)
(0.650558 0.32072 -4.33019e-19)
(0.542125 0.264547 5.12422e-19)
(0.371907 0.180697 1.51247e-19)
(0.182048 0.0875933 6.23585e-19)
(0.0282636 0.0134558 -1.67034e-18)
(0.233388 0.124191 7.97822e-20)
(1.09655 0.581532 -1.38417e-19)
(1.28007 0.684688 1.19016e-19)
(1.29344 0.704451 2.2785e-19)
(1.2495 0.695331 0)
(1.1906 0.678066 -1.72579e-19)
(1.12542 0.656682 4.6886e-19)
(1.05449 0.630222 2.75717e-19)
(0.978475 0.597025 0)
(0.898618 0.55499 -1.27976e-18)
(0.827216 0.508876 9.9145e-19)
(0.77386 0.467471 0)
(0.735185 0.433004 2.81341e-19)
(0.706025 0.404487 -2.01358e-21)
(0.677445 0.377919 -5.90554e-19)
(0.626726 0.342319 2.31168e-19)
(0.521228 0.281193 0)
(0.354766 0.189978 8.12897e-19)
(0.170738 0.0900991 0)
(0.0256655 0.0133144 -7.86011e-19)
(0.232963 0.133445 -8.19267e-20)
(1.0873 0.623022 -1.40181e-19)
(1.26955 0.733789 1.28911e-19)
(1.28116 0.754021 0)
(1.23624 0.743373 -2.12979e-19)
(1.1766 0.724264 0)
(1.11038 0.700834 -4.88958e-19)
(1.03802 0.672126 -1.39899e-19)
(0.960084 0.636411 1.20891e-19)
(0.877785 0.591388 -6.32011e-19)
(0.803965 0.541941 1.0413e-19)
(0.748931 0.497347 0)
(0.709407 0.460043 -6.00979e-19)
(0.680062 0.429113 2.05992e-21)
(0.651734 0.400207 0)
(0.601712 0.361287 2.25587e-21)
(0.497817 0.294449 7.3925e-19)
(0.334331 0.195589 -6.99581e-19)
(0.157009 0.0901548 2.06238e-19)
(0.0225049 0.0126229 0)
(0.232908 0.142549 0)
(1.07844 0.662451 -1.43756e-19)
(1.25852 0.780235 -1.28463e-19)
(1.26841 0.800807 -2.29165e-21)
(1.22262 0.788789 -1.06896e-19)
(1.16232 0.768052 -3.91984e-19)
(1.0952 0.742832 1.76719e-19)
(1.02153 0.712166 -1.54884e-19)
(0.941784 0.674245 5.25847e-19)
(0.857055 0.62655 -1.01049e-18)
(0.780678 0.573936 -3.39045e-21)
(0.723782 0.526087 -2.70664e-19)
(0.683262 0.485735 9.6937e-19)
(0.653639 0.452098 -2.42348e-21)
(0.6254 0.420487 -4.54308e-19)
(0.575481 0.377643 -8.07539e-19)
(0.472169 0.304328 0)
(0.311163 0.197693 0)
(0.14138 0.0878018 2.22101e-19)
(0.0190083 0.0114188 -1.2995e-19)
(0.233365 0.151625 -8.55146e-20)
(1.07 0.699629 3.00337e-19)
(1.24727 0.824082 1.36843e-19)
(1.25546 0.844899 0)
(1.20888 0.831644 -1.55487e-21)
(1.14802 0.80947 -4.0532e-19)
(1.08011 0.782695 4.57909e-19)
(1.00525 0.750343 6.42216e-19)
(0.923777 0.710535 6.9396e-19)
(0.836614 0.660504 -8.32573e-19)
(0.757521 0.604959 -8.47951e-19)
(0.698505 0.553856 7.23394e-19)
(0.656735 0.510238 0)
(0.626673 0.473574 -2.06977e-19)
(0.598343 0.438838 -4.89268e-19)
(0.547947 0.391382 -5.78142e-19)
(0.444109 0.310661 -6.8495e-19)
(0.285749 0.196277 2.02411e-19)
(0.124255 0.0830686 -1.19207e-19)
(0.0152104 0.00974545 3.23805e-22)
(0.233887 0.160572 0)
(1.06215 0.735104 0)
(1.23595 0.865424 2.5949e-21)
(1.24248 0.886393 0)
(1.19521 0.872027 3.51014e-19)
(1.13388 0.848584 3.14789e-19)
(1.06528 0.820459 0)
(0.989344 0.786678 8.22849e-20)
(0.906241 0.74529 1.17355e-18)
(0.816653 0.693286 -1.90927e-18)
(0.734671 0.635117 0)
(0.67317 0.580829 -4.64261e-19)
(0.629796 0.533749 -2.95281e-21)
(0.599067 0.493678 -2.41207e-21)
(0.570473 0.455284 5.22778e-19)
(0.519128 0.402399 -4.04076e-22)
(0.413958 0.313416 -1.47089e-18)
(0.25817 0.191255 4.34669e-19)
(0.106375 0.07632 1.28408e-19)
(0.0114228 0.00778134 0)
(0.234402 0.169328 2.66739e-19)
(1.0546 0.768867 1.5869e-19)
(1.22465 0.904325 2.87112e-19)
(1.22962 0.92539 -5.34313e-19)
(1.18176 0.910007 6.09002e-19)
(1.12005 0.885457 0)
(1.05086 0.856174 3.02311e-19)
(0.973958 0.8212 -1.78192e-19)
(0.889321 0.778534 3.84759e-21)
(0.797341 0.724935 1.38039e-19)
(0.71227 0.664501 1.10054e-18)
(0.64789 0.607196 -1.63969e-19)
(0.602461 0.556511 -5.94447e-19)
(0.570697 0.512564 -2.39173e-19)
(0.541628 0.469761 2.82571e-19)
(0.489001 0.410408 -2.49201e-22)
(0.382246 0.312333 3.9553e-19)
(0.229434 0.182798 -9.33207e-19)
(0.0884221 0.0679492 1.10302e-18)
(0.00778482 0.00564202 1.60886e-19)
(0.234752 0.17777 -9.08639e-20)
(1.04738 0.801009 8.21686e-20)
(1.21352 0.940904 6.10298e-21)
(1.21699 0.962006 -2.73287e-19)
(1.16863 0.945689 -1.23383e-19)
(1.10661 0.920162 -5.894e-19)
(1.03695 0.889892 1.02311e-19)
(0.959195 0.853936 -7.54698e-19)
(0.87314 0.81027 -1.31873e-18)
(0.778802 0.755455 -1.14931e-18)
(0.690485 0.693187 0)
(0.62282 0.63314 -7.09876e-19)
(0.57477 0.578802 8.51565e-19)
(0.54139 0.530467 0)
(0.5115 0.482169 -6.04408e-19)
(0.457468 0.414922 3.59355e-19)
(0.349378 0.306953 -4.24183e-19)
(0.200679 0.171098 -5.01392e-19)
(0.0713388 0.0584953 -8.87254e-19)
(0.00451916 0.00350679 -6.91666e-19)
(0.235391 0.186034 9.2297e-20)
(1.04034 0.831502 -8.76838e-20)
(1.20259 0.975239 -2.23272e-19)
(1.20466 0.996324 -3.55798e-19)
(1.15591 0.979161 2.66823e-19)
(1.09366 0.952783 -3.67173e-19)
(1.02362 0.921666 3.30716e-19)
(0.945131 0.88493 -7.95151e-19)
(0.857767 0.840521 -7.87051e-19)
(0.761153 0.784861 1.21434e-18)
(0.669482 0.72123 2.42127e-18)
(0.598139 0.658821 0)
(0.546805 0.600932 0)
(0.510942 0.547749 -2.74437e-19)
(0.479538 0.492457 0)
(0.42411 0.415106 7.71974e-19)
(0.31594 0.296252 9.11414e-19)
(0.173575 0.156029 0)
(0.0564807 0.0485481 0)
(0.00182989 0.00159231 7.42334e-19)
(0.235644 0.193815 -9.3514e-20)
(1.03353 0.86034 -7.91299e-20)
(1.19194 1.00745 -1.56896e-19)
(1.19271 1.02847 2.92016e-19)
(1.14365 1.01052 2.77576e-19)
(1.08125 0.983395 4.452e-19)
(1.01092 0.95156 -4.66376e-19)
(0.931818 0.914212 1.71227e-22)
(0.843274 0.869296 -4.97199e-21)
(0.744489 0.813149 -5.65327e-21)
(0.649427 0.748658 1.24821e-18)
(0.574048 0.684355 0)
(0.51875 0.623212 8.55102e-19)
(0.479204 0.564912 5.85092e-19)
(0.444905 0.50088 1.39896e-18)
(0.387806 0.410003 4.14166e-19)
(0.282243 0.278031 -4.9048e-19)
(0.15128 0.135722 -2.88411e-19)
(0.0482769 0.0378127 0)
(0.00111643 0.000513309 7.96577e-19)
(0.236171 0.20157 1.8756e-19)
(1.02692 0.887621 0)
(1.18156 1.03758 -1.57867e-19)
(1.18114 1.05852 2.28498e-19)
(1.13189 1.03986 -2.84814e-19)
(1.0694 1.01208 -5.9357e-19)
(0.9989 0.97963 9.73577e-19)
(0.919282 0.941822 -5.97715e-20)
(0.829693 0.896607 0)
(0.72888 0.84029 -1.36205e-18)
(0.630463 0.775457 -2.73041e-18)
(0.550777 0.70982 1.05963e-19)
(0.490897 0.645902 1.17394e-18)
(0.446207 0.582587 0)
(0.406643 0.50826 9.38982e-19)
(0.346232 0.399416 0)
(0.245744 0.248769 0)
(0.136396 0.0999024 -3.1132e-19)
(0.0651655 0.0150631 0)
(0.0260764 0.0104934 2.13345e-19)
(0.236302 0.208695 1.90134e-19)
(1.02046 0.913692 0)
(1.17145 1.06586 -2.40284e-19)
(1.16994 1.08671 0)
(1.1206 1.06744 1.43135e-19)
(1.05806 1.03912 0)
(0.987477 1.00619 5.90966e-20)
(0.907429 0.968097 1.12758e-19)
(0.81691 0.92282 9.9302e-20)
(0.714176 0.866675 -1.50882e-18)
(0.612453 0.802062 8.42887e-20)
(0.528182 0.735789 8.40791e-19)
(0.463038 0.669631 1.14321e-18)
(0.411435 0.601766 1.51064e-19)
(0.363112 0.516381 7.31213e-19)
(0.295159 0.385402 0)
(0.194944 0.208294 1.02778e-18)
(0.099642 0.038785 -6.02385e-19)
(0.0452362 0.0451119 7.01492e-19)
(-0.0685071 0.422317 -8.30351e-19)
(0.236396 0.215583 -1.46313e-19)
(1.01394 0.938341 -2.57391e-19)
(1.16153 1.09258 0)
(1.15897 1.11345 5.15687e-21)
(1.10959 1.09381 -3.65235e-19)
(1.04697 1.06519 1.02574e-18)
(0.976357 1.03202 3.76726e-19)
(0.895868 0.993971 0)
(0.804417 0.949016 6.92295e-19)
(0.699739 0.893596 -8.25775e-20)
(0.594529 0.829926 0)
(0.505167 0.764026 0)
(0.433815 0.696182 1.02196e-18)
(0.373472 0.624199 -4.61806e-19)
(0.311585 0.528396 -7.36186e-19)
(0.230048 0.37372 0)
(0.112167 0.191989 5.15189e-19)
(0.00919544 0.431121 -5.98561e-19)
(0.0382806 1.85792 -3.38107e-19)
(0.0688335 2.79414 -4.25853e-19)
(0.23633 0.221614 9.60365e-20)
(1.00756 0.961741 3.04773e-19)
(1.15181 1.11774 -1.27938e-19)
(1.14822 1.13861 -1.59761e-19)
(1.09891 1.11876 0)
(1.03619 1.09 7.01709e-19)
(0.965723 1.05681 5.71412e-19)
(0.884775 1.01901 -5.82981e-20)
(0.792466 0.97468 1.02048e-19)
(0.685931 0.920437 1.46262e-18)
(0.577273 0.858358 1.40153e-18)
(0.482701 0.794066 9.4906e-19)
(0.404328 0.725203 1.02579e-18)
(0.334419 0.64845 -1.07864e-18)
(0.258077 0.547169 -1.10641e-18)
(0.153033 0.399777 0)
(0.0555189 0.819365 0)
(0.112077 2.52829 2.91595e-19)
(0.113621 3.18741 0)
(0.116551 3.38268 7.2105e-19)
(0.238775 0.227127 0)
(1.0019 0.984049 0)
(1.14207 1.1412 0)
(1.13745 1.16196 -3.88554e-20)
(1.08826 1.14205 -3.15847e-19)
(1.02548 1.11341 4.97769e-19)
(0.955468 1.08047 3.89402e-19)
(0.874102 1.04312 -5.90993e-20)
(0.781021 0.99968 9.07753e-19)
(0.672782 0.947058 -1.00093e-20)
(0.560834 0.887241 2.80086e-18)
(0.461155 0.825716 -1.07765e-19)
(0.375069 0.757503 1.26027e-19)
(0.296546 0.671557 1.54615e-19)
(0.197875 0.573364 -6.8172e-22)
(0.117438 0.951672 1.7611e-21)
(0.154825 2.6783 -1.49817e-18)
(0.167213 3.28334 -5.75168e-19)
(0.153591 3.42523 3.12531e-19)
(0.138242 3.44894 -3.55842e-19)
(0.156313 0.183558 -4.57887e-20)
(0.990736 1.0081 0)
(1.13208 1.16318 2.15737e-19)
(1.1273 1.184 3.73188e-19)
(1.07839 1.16445 -5.90219e-19)
(1.01576 1.13607 -5.14516e-19)
(0.945487 1.10309 -4.30862e-19)
(0.863946 1.06642 7.57546e-19)
(0.770262 1.02415 -7.66894e-19)
(0.660609 0.973558 0)
(0.545657 0.916685 1.40039e-18)
(0.441119 0.858756 -7.83814e-19)
(0.346668 0.795838 0)
(0.260706 0.697155 1.45813e-19)
(0.169993 0.815284 3.44969e-19)
(0.17053 2.42848 -4.12832e-19)
(0.236153 3.31849 4.6903e-19)
(0.212975 3.44202 2.63628e-19)
(0.176779 3.46471 3.02712e-19)
(0.152798 3.47549 5.08929e-19)
(0.28167 0.265338 9.39766e-20)
(0.975475 1.01755 0)
(1.11395 1.18786 -1.99993e-19)
(1.11287 1.21633 -3.50579e-19)
(1.06245 1.19738 5.59508e-19)
(0.999318 1.16948 4.85072e-19)
(0.928228 1.13792 5.62174e-19)
(0.846102 1.1024 5.78746e-20)
(0.751199 1.0622 7.81209e-19)
(0.639051 1.0153 1.35059e-18)
(0.519509 0.964519 8.30932e-20)
(0.407488 0.914055 7.13847e-19)
(0.297082 0.860906 1.21454e-19)
(0.227046 0.97583 -1.46285e-19)
(0.244817 2.27313 -3.36318e-19)
(0.311299 3.3225 3.49051e-19)
(0.296047 3.47606 -4.01431e-19)
(0.25797 3.49875 -2.35191e-19)
(0.218643 3.5268 -2.31585e-19)
(0.164322 3.5197 -2.63243e-20)
(0.269325 0.261945 0)
(0.972981 1.03979 -3.58985e-20)
(1.1061 1.21091 3.4395e-20)
(1.10319 1.23936 3.39332e-20)
(1.0525 1.2203 3.4481e-19)
(0.989443 1.19263 -4.59977e-19)
(0.918028 1.16123 -3.53329e-19)
(0.835811 1.12648 5.50253e-20)
(0.740603 1.08771 -8.42478e-19)
(0.627572 1.04355 -1.43761e-20)
(0.506031 0.997393 -2.63459e-18)
(0.39083 0.952996 1.01105e-19)
(0.284556 0.926791 -1.17153e-19)
(0.267504 1.44992 -1.39996e-19)
(0.348076 3.06594 1.79036e-20)
(0.374456 3.47255 9.15134e-22)
(0.331715 3.53556 6.88851e-19)
(0.292598 3.56003 3.74243e-19)
(0.241475 3.5842 -1.64485e-19)
(0.179031 3.57967 -1.57732e-19)
(0.252667 0.260022 -7.19421e-20)
(0.968837 1.0646 -2.24683e-19)
(1.09774 1.23601 9.63706e-20)
(1.09296 1.26379 1.29525e-19)
(1.04207 1.24453 0)
(0.97915 1.21688 -5.974e-19)
(0.907708 1.18571 -4.96175e-19)
(0.825683 1.15171 5.20583e-20)
(0.730492 1.11444 -9.19489e-20)
(0.617086 1.07317 -1.31204e-18)
(0.494309 1.0319 -1.25839e-18)
(0.377712 0.994465 -8.65403e-19)
(0.287647 1.04937 -9.01601e-19)
(0.337351 2.11351 9.21095e-19)
(0.437529 3.37128 8.2763e-19)
(0.421159 3.53629 0)
(0.372072 3.58213 0)
(0.333827 3.62516 -1.39922e-19)
(0.276709 3.68862 0)
(0.191349 3.6614 -2.3886e-19)
(0.241466 0.261432 8.7018e-20)
(0.962704 1.09042 1.64651e-19)
(1.08796 1.26225 0)
(1.08142 1.28903 6.11552e-21)
(1.03045 1.26936 2.8961e-19)
(0.967777 1.24159 -8.33492e-19)
(0.896641 1.21066 -3.09588e-19)
(0.815013 1.1773 4.58169e-20)
(0.720083 1.14143 -6.73577e-19)
(0.606699 1.103 7.18314e-20)
(0.483494 1.06672 0)
(0.367941 1.03878 0)
(0.314574 1.2734 -8.59605e-19)
(0.423666 2.79312 3.5781e-19)
(0.513568 3.48918 5.05978e-19)
(0.468065 3.57241 0)
(0.42772 3.63277 -1.98752e-19)
(0.387737 3.70063 1.62309e-19)
(0.34094 3.69147 -4.05449e-21)
(0.220927 3.67808 -7.11207e-21)