/*--------------------------------*- C++ -*----------------------------------*\
  =========                 |
  \\      /  F ield         | OpenFOAM: The Open Source CFD Toolbox
   \\    /   O peration     | Website:  https://openfoam.org
    \\  /    A nd           | Version:  9
     \\/     M anipulation  |
\*---------------------------------------------------------------------------*/
FoamFile
{
    format      ascii;
    class       volScalarField;
    location    "64";
    object      p;
}
// * * * * * * * * * * * * * * * * * * * * * * * * * * * * * * * * * * * * * //

dimensions      [0 2 -2 0 0 0 0];

internalField   nonuniform List<scalar> 
8800
(
0.839458
0.791672
0.752984
0.723992
0.703132
0.688308
0.677722
0.670257
0.665459
0.663431
0.664732
0.668949
0.675614
0.684945
0.697735
0.715476
0.740258
0.774202
0.816754
0.875457
0.670703
0.678382
0.68586
0.68917
0.68767
0.682598
0.676119
0.670055
0.665351
0.662534
0.662287
0.664825
0.669338
0.675302
0.682084
0.688372
0.692018
0.691285
0.685869
0.677182
0.6491
0.655261
0.659389
0.662337
0.664391
0.665003
0.663907
0.661819
0.659827
0.658952
0.65995
0.662362
0.665183
0.66738
0.667999
0.666808
0.664472
0.661083
0.656527
0.652766
0.643281
0.645932
0.648686
0.651092
0.652732
0.653902
0.654655
0.65479
0.654521
0.654508
0.6553
0.656503
0.657367
0.65745
0.656854
0.655772
0.653962
0.651397
0.648997
0.647493
0.637888
0.639313
0.641094
0.64313
0.64492
0.646269
0.647272
0.648089
0.648733
0.649339
0.650035
0.650568
0.650696
0.650429
0.649747
0.648509
0.646821
0.644979
0.643675
0.642843
0.632795
0.633716
0.634959
0.63653
0.638169
0.639703
0.641003
0.642093
0.643091
0.644031
0.644773
0.645144
0.645134
0.644719
0.643856
0.642669
0.641351
0.640098
0.639279
0.638728
0.627868
0.628538
0.629503
0.63081
0.632225
0.633694
0.63515
0.636498
0.637735
0.638897
0.639778
0.640197
0.640151
0.63967
0.638885
0.637954
0.636954
0.636039
0.635457
0.635051
0.62306
0.623577
0.624363
0.625498
0.626783
0.628168
0.629632
0.631133
0.632604
0.634003
0.63508
0.63561
0.63563
0.635279
0.634702
0.633996
0.633238
0.632564
0.632134
0.631816
0.618299
0.618709
0.619368
0.620379
0.621593
0.622933
0.624399
0.625987
0.627657
0.629325
0.630653
0.63138
0.631598
0.63147
0.631118
0.630625
0.630073
0.629592
0.629273
0.629015
0.613497
0.613831
0.614401
0.615333
0.616499
0.617826
0.619329
0.621018
0.62288
0.624843
0.626495
0.627523
0.628022
0.62815
0.628031
0.627765
0.627409
0.62709
0.626855
0.626638
0.608566
0.608843
0.609351
0.610238
0.611387
0.61274
0.614319
0.616151
0.618246
0.620551
0.622611
0.624026
0.624863
0.625285
0.625421
0.625383
0.625222
0.625045
0.624878
0.62469
0.603415
0.603648
0.604117
0.60499
0.606161
0.607583
0.60928
0.611309
0.613703
0.616432
0.618993
0.620871
0.622104
0.622864
0.623286
0.623484
0.623522
0.623475
0.623364
0.623196
0.597954
0.598152
0.598601
0.599488
0.600724
0.60226
0.60413
0.606424
0.609198
0.612457
0.615625
0.618055
0.619751
0.620896
0.62164
0.62209
0.622342
0.622418
0.622355
0.622201
0.592078
0.592248
0.592695
0.593625
0.594967
0.596667
0.598778
0.601416
0.604672
0.608587
0.61249
0.61558
0.617822
0.61941
0.620521
0.621277
0.621741
0.621936
0.621913
0.621767
0.58567
0.585815
0.586276
0.587278
0.588772
0.590696
0.593125
0.596203
0.600065
0.604785
0.609577
0.613455
0.616343
0.618456
0.619983
0.62107
0.621779
0.622099
0.622113
0.621971
0.578589
0.57871
0.579197
0.580304
0.582001
0.58422
0.587056
0.590692
0.595306
0.601011
0.606877
0.611696
0.615349
0.618078
0.6201
0.621571
0.622551
0.622998
0.623046
0.622903
0.57065
0.57075
0.571282
0.572529
0.574487
0.57708
0.580434
0.584773
0.590318
0.597225
0.604384
0.610325
0.614881
0.618336
0.620949
0.622867
0.624151
0.624733
0.624812
0.624666
0.561629
0.561729
0.562315
0.56372
0.566011
0.569089
0.573102
0.578319
0.585019
0.593392
0.602103
0.609373
0.614995
0.619301
0.622616
0.625057
0.626683
0.627408
0.627516
0.627362
0.551209
0.55129
0.551967
0.553597
0.556323
0.560022
0.564866
0.571189
0.57932
0.589479
0.600047
0.608883
0.615756
0.621066
0.625182
0.628242
0.630255
0.631128
0.631261
0.631096
0.539016
0.539083
0.53986
0.541802
0.545085
0.549582
0.55549
0.563212
0.573125
0.585459
0.598234
0.608903
0.617228
0.623708
0.628752
0.632528
0.634961
0.635984
0.636135
0.635955
0.524492
0.524548
0.525467
0.527825
0.531848
0.537395
0.544689
0.554203
0.566345
0.581318
0.596699
0.609493
0.619478
0.627294
0.633417
0.637995
0.640873
0.642036
0.642197
0.641998
0.506869
0.506914
0.508046
0.510989
0.516024
0.52299
0.53213
0.543977
0.558922
0.57709
0.595509
0.610723
0.62258
0.631906
0.639214
0.64469
0.648017
0.649296
0.649451
0.649232
0.484983
0.485025
0.486505
0.490331
0.496824
0.505789
0.51746
0.532385
0.550859
0.572857
0.594766
0.612678
0.626603
0.637588
0.646194
0.652606
0.656345
0.657695
0.657827
0.657587
0.457081
0.457144
0.459215
0.464466
0.473225
0.485125
0.500365
0.519381
0.542265
0.568784
0.594619
0.615459
0.631596
0.644345
0.654337
0.661661
0.665716
0.667065
0.667151
0.666892
0.420122
0.420286
0.423571
0.431448
0.444031
0.460416
0.480742
0.505126
0.533404
0.565128
0.595258
0.619183
0.637612
0.652179
0.663564
0.67167
0.675873
0.677123
0.677141
0.676867
0.368272
0.369259
0.375791
0.389065
0.408291
0.431619
0.458958
0.490129
0.524763
0.562265
0.596912
0.62397
0.644682
0.660991
0.67368
0.682325
0.686435
0.687483
0.687425
0.687144
0.292577
0.299894
0.315003
0.338388
0.367515
0.40014
0.436051
0.475035
0.516717
0.560476
0.599956
0.630353
0.653514
0.671713
0.685622
0.69459
0.698457
0.699289
0.699184
0.698938
0.21124
0.228544
0.253022
0.287157
0.326574
0.368627
0.413173
0.460153
0.509262
0.559937
0.60512
0.639631
0.665735
0.686162
0.701429
0.710347
0.713597
0.71415
0.714075
0.713915
0.143437
0.163817
0.196035
0.239307
0.287806
0.338737
0.391651
0.446469
0.502866
0.560262
0.610876
0.649215
0.678038
0.700288
0.716244
0.724771
0.727586
0.728083
0.728072
0.727957
0.0879051
0.109945
0.147691
0.197416
0.253094
0.311511
0.371842
0.433869
0.497122
0.560921
0.6167
0.658638
0.689928
0.713753
0.730401
0.738922
0.741531
0.742023
0.742038
0.741953
0.0416938
0.0649109
0.10645
0.161301
0.222753
0.287356
0.354053
0.422484
0.492016
0.561826
0.622528
0.667904
0.701566
0.726989
0.744444
0.75315
0.755935
0.756342
0.756375
0.756308
0.0025293
0.0264032
0.0708159
0.129719
0.196026
0.26589
0.338126
0.41227
0.487553
0.562985
0.628369
0.67706
0.713046
0.740039
0.758442
0.767629
0.770502
0.770945
0.77099
0.770953
-0.0316223
-0.00732547
0.0393507
0.101601
0.172013
0.246464
0.323623
0.402929
0.483503
0.564211
0.634069
0.685973
0.724233
0.752792
0.772123
0.781882
0.784996
0.785467
0.785523
0.785501
-0.062265
-0.0375998
0.0109201
0.0760305
0.149989
0.228463
0.310035
0.394053
0.479556
0.565278
0.639442
0.694455
0.734906
0.764998
0.785243
0.795518
0.798905
0.799462
0.79952
0.799509
-0.0903743
-0.0653807
-0.0152858
0.0522939
0.129367
0.21141
0.29696
0.385314
0.475444
0.565954
0.64429
0.702319
0.744876
0.776377
0.797527
0.808307
0.811945
0.812607
0.812642
0.812631
-0.11676
-0.0913927
-0.0398689
0.0298562
0.109713
0.194946
0.2841
0.376446
0.470921
0.566038
0.648467
0.709456
0.754048
0.786919
0.808816
0.819996
0.823836
0.824557
0.824574
0.824551
-0.141807
-0.116062
-0.0632683
0.00836889
0.0907097
0.178807
0.271226
0.367255
0.465827
0.565405
0.65189
0.715829
0.762405
0.796516
0.819006
0.830498
0.834467
0.835221
0.835223
0.835184
-0.16595
-0.139737
-0.0859114
-0.0124157
0.0721326
0.162799
0.258189
0.357615
0.460044
0.563944
0.654491
0.721433
0.769986
0.80524
0.828246
0.839875
0.843849
0.84461
0.84457
0.84451
-0.189329
-0.162662
-0.107806
-0.0326755
0.0538456
0.14682
0.244899
0.347447
0.45349
0.561579
0.656226
0.726285
0.776885
0.813243
0.836608
0.848209
0.852152
0.852872
0.852806
0.852724
-0.212084
-0.184957
-0.129073
-0.0525094
0.0357815
0.130815
0.231311
0.336703
0.446118
0.558249
0.657044
0.730407
0.783206
0.820676
0.844269
0.855715
0.859499
0.860142
0.860057
0.859958
-0.234353
-0.206699
-0.149828
-0.0719596
0.0179
0.114769
0.217426
0.32539
0.437914
0.553907
0.65689
0.733801
0.789062
0.827735
0.851428
0.862517
0.866023
0.866554
0.866429
0.866313
-0.256178
-0.227899
-0.170123
-0.0910368
0.000219788
0.0986994
0.203276
0.313536
0.42889
0.548517
0.655702
0.736442
0.794539
0.834614
0.858297
0.868779
0.871811
0.872163
0.872008
0.871883
-0.277407
-0.248537
-0.189894
-0.109725
-0.0172371
0.0826605
0.188909
0.301201
0.419091
0.542088
0.653407
0.738264
0.799657
0.841524
0.865215
0.874764
0.877011
0.87707
0.876875
0.876757
-0.298028
-0.268592
-0.209135
-0.127982
-0.0344224
0.0667026
0.174406
0.288454
0.408583
0.534636
0.649945
0.739149
0.804366
0.84862
0.872631
0.881017
0.881954
0.881387
0.88113
0.881075
-0.318109
-0.288036
-0.227829
-0.145788
-0.0512793
0.0509021
0.159848
0.27539
0.397449
0.526213
0.645259
0.738944
0.808506
0.85588
0.88098
0.888453
0.887518
0.88552
0.884956
0.885206
-0.337488
-0.30685
-0.245924
-0.16309
-0.0677546
0.035337
0.145324
0.262115
0.385798
0.516904
0.639323
0.737462
0.811805
0.863002
0.890348
0.898151
0.895681
0.891288
0.888989
0.888812
-0.356258
-0.325027
-0.26344
-0.179919
-0.0838825
0.0199645
0.130779
0.248573
0.373565
0.506638
0.632004
0.734427
0.81397
0.869517
0.900189
0.910521
0.908878
0.901883
0.89424
0.8805
-0.37435
-0.342555
-0.280493
-0.196475
-0.0999421
0.0044618
0.11581
0.234299
0.360235
0.494806
0.622688
0.729104
0.814503
0.874815
0.908957
0.923623
0.923347
0.910154
0.889804
0.878956
-0.391594
-0.359581
-0.296895
-0.212567
-0.115581
-0.0108333
0.100637
0.219608
0.346101
0.481646
0.611403
0.720965
0.812495
0.877703
0.912575
0.927097
0.928984
0.904667
0.83725
0.807126
-0.407329
-0.377365
-0.312334
-0.227716
-0.130001
-0.0254217
0.0855762
0.204728
0.331377
0.467271
0.598056
0.709654
0.806412
0.877424
0.905805
0.915287
0.901794
0.846303
0.777127
0.734638
-0.462298
-0.393051
-0.326305
-0.243054
-0.14485
-0.0407825
0.0705569
0.189369
0.31568
0.451202
0.582003
0.694442
0.792228
0.869968
0.872276
0.872527
0.819659
0.747417
0.670104
0.627101
-0.424002
-0.408058
-0.347164
-0.262821
-0.166837
-0.0628127
0.0475002
0.165675
0.291029
0.425215
0.554258
0.665341
0.75582
0.839034
0.822796
0.705677
0.598085
0.523265
0.448966
0.478402
-0.454511
-0.425404
-0.363622
-0.28012
-0.184169
-0.0802619
0.0303226
0.147863
0.272158
0.404569
0.530872
0.637807
0.718619
0.762933
0.712154
0.559731
0.429616
0.336678
0.237135
0.286168
-0.478019
-0.44599
-0.38305
-0.299418
-0.203347
-0.099547
0.0109504
0.127654
0.250547
0.380559
0.503145
0.60386
0.6757
0.685204
0.575914
0.400634
0.246059
0.125807
-0.00618177
0.0260725
-0.500999
-0.467469
-0.403381
-0.318839
-0.222696
-0.119055
-0.00909159
0.106641
0.227932
0.355151
0.47303
0.565842
0.622183
0.599916
0.438753
0.240512
0.0488414
-0.120087
-0.309209
-0.328411
-0.523391
-0.489429
-0.424469
-0.339163
-0.242893
-0.139485
-0.0301844
0.084447
0.203868
0.32788
0.440304
0.525082
0.561601
0.502614
0.308148
0.0960589
-0.122215
-0.312151
-0.554446
-0.851555
-0.546083
-0.512124
-0.446641
-0.360863
-0.264422
-0.161195
-0.0524898
0.0609998
0.178432
0.298952
0.405598
0.481816
0.496834
0.386466
0.194439
-0.0168682
-0.222115
-0.395043
-0.464889
-0.543673
-0.570029
-0.536013
-0.470242
-0.384253
-0.287775
-0.184826
-0.0768107
0.0353585
0.150476
0.266958
0.36741
0.432344
0.422193
0.278106
0.0933149
-0.0989
-0.262751
-0.356292
-0.38051
-0.396372
-0.595531
-0.561394
-0.495443
-0.409408
-0.313081
-0.210585
-0.103505
0.00703656
0.119411
0.2312
0.324926
0.375464
0.347515
0.17745
0.00165281
-0.165411
-0.292857
-0.332201
-0.345067
-0.346389
-0.622791
-0.588442
-0.522309
-0.436323
-0.340291
-0.238479
-0.132591
-0.0240156
0.0851716
0.191681
0.277743
0.31389
0.265958
0.0844956
-0.082206
-0.231812
-0.30854
-0.325588
-0.326948
-0.326768
-0.65187
-0.617225
-0.550868
-0.465
-0.369424
-0.268498
-0.164074
-0.0578129
0.0477682
0.148475
0.225973
0.250213
0.166129
-0.000325899
-0.158758
-0.282013
-0.31875
-0.317123
-0.316217
-0.315617
-0.682485
-0.647562
-0.581017
-0.495354
-0.400393
-0.300588
-0.197923
-0.0943283
0.00724241
0.101692
0.17048
0.177744
0.0753781
-0.0790397
-0.219389
-0.29591
-0.306108
-0.308649
-0.309288
-0.309007
-0.714091
-0.679013
-0.612505
-0.527159
-0.433016
-0.334593
-0.233986
-0.133429
-0.0362186
0.0516836
0.111735
0.10401
-0.00576966
-0.145529
-0.263602
-0.29515
-0.303455
-0.304698
-0.304398
-0.304091
-0.746224
-0.711031
-0.644886
-0.560024
-0.466951
-0.370197
-0.271985
-0.174829
-0.0823288
-0.000871826
0.0488215
0.033839
-0.0802028
-0.198839
-0.293358
-0.310395
-0.301569
-0.300564
-0.300473
-0.300215
-0.777986
-0.742893
-0.67729
-0.593362
-0.50166
-0.406931
-0.311472
-0.218048
-0.130616
-0.055328
-0.0154631
-0.0306535
-0.14525
-0.238161
-0.293624
-0.303646
-0.300345
-0.298894
-0.29825
-0.297987
-0.807836
-0.773432
-0.708749
-0.626255
-0.536384
-0.444101
-0.351801
-0.262402
-0.180278
-0.111115
-0.0747488
-0.102392
-0.198535
-0.271717
-0.276052
-0.294702
-0.299311
-0.297867
-0.297312
-0.296927
-0.834159
-0.800838
-0.738138
-0.657523
-0.570095
-0.480785
-0.392114
-0.307035
-0.23019
-0.167313
-0.131008
-0.172363
-0.24874
-0.289177
-0.307346
-0.305329
-0.304439
-0.30398
-0.303842
-0.303425
-0.854845
-0.823237
-0.763428
-0.685765
-0.601525
-0.515849
-0.431338
-0.350924
-0.279192
-0.222556
-0.189114
-0.230408
-0.297015
-0.344972
-0.356598
-0.341029
-0.328483
-0.325517
-0.323834
-0.322732
-0.867659
-0.838747
-0.782695
-0.709118
-0.629193
-0.547994
-0.468273
-0.39287
-0.326179
-0.275054
-0.244977
-0.278013
-0.338594
-0.412544
-0.384549
-0.363872
-0.355622
-0.349961
-0.34504
-0.34404
-0.869988
-0.845119
-0.794009
-0.725781
-0.651423
-0.57585
-0.501619
-0.431622
-0.369938
-0.323139
-0.290344
-0.30853
-0.341377
-0.439142
-0.393147
-0.353753
-0.3342
-0.327227
-0.325593
-0.325049
-0.859632
-0.839612
-0.795212
-0.734176
-0.666763
-0.597944
-0.530107
-0.465923
-0.409163
-0.36562
-0.323568
-0.305166
-0.260937
-0.298113
-0.289382
-0.281742
-0.285497
-0.289355
-0.291105
-0.290754
-0.834601
-0.819552
-0.784493
-0.733077
-0.674249
-0.61332
-0.552607
-0.494582
-0.442887
-0.402119
-0.350225
-0.280068
-0.120427
0.0749094
-0.0239442
-0.177388
-0.252711
-0.282899
-0.293221
-0.295712
-0.797457
-0.787759
-0.762673
-0.722644
-0.673874
-0.621747
-0.568554
-0.516681
-0.470204
-0.433387
-0.392041
-0.332169
-0.23131
-0.123972
-0.2458
-0.340019
-0.387373
-0.405687
-0.41409
-0.419155
-0.754937
-0.749437
-0.734623
-0.705682
-0.667553
-0.623988
-0.578049
-0.53205
-0.48974
-0.458328
-0.437811
-0.498739
-0.726065
-1.03991
-1.07179
-0.877533
-0.725516
-0.652423
-0.632832
-0.628475
-0.716896
-0.713583
-0.706576
-0.687629
-0.658167
-0.621835
-0.581903
-0.540254
-0.500385
-0.469702
-0.455096
-0.558925
-0.722809
-0.870446
-0.842864
-0.739407
-0.700039
-0.67225
-0.646524
-0.64339
-0.689931
-0.687916
-0.684382
-0.672731
-0.649529
-0.618095
-0.581803
-0.541626
-0.500344
-0.460005
-0.440628
-0.414636
-0.438351
-0.494069
-0.591553
-0.695787
-0.758669
-0.731127
-0.648884
-0.60466
-0.669482
-0.668753
-0.667616
-0.661835
-0.644186
-0.615703
-0.57975
-0.538935
-0.492784
-0.44525
-0.413693
-0.386324
-0.314395
-0.20914
-0.136639
-0.101512
-0.0919401
-0.0832243
-0.0399836
-0.0122684
-0.65758
-0.657284
-0.656667
-0.654015
-0.641606
-0.614607
-0.577483
-0.53343
-0.483013
-0.427026
-0.373568
-0.33117
-0.165888
0.077605
0.328021
0.525831
0.587402
0.603195
0.600259
0.597522
-0.64978
-0.649602
-0.649037
-0.648097
-0.640669
-0.615695
-0.576617
-0.527586
-0.470209
-0.400033
-0.325664
-0.23953
-0.0497771
0.22168
0.465007
0.641116
0.748991
0.820637
0.8661
0.884756
-0.645572
-0.645299
-0.644542
-0.644084
-0.64071
-0.619754
-0.577875
-0.523399
-0.456858
-0.379385
-0.287106
-0.190223
0.037669
0.302482
0.555679
0.763037
0.913195
1.03661
1.12072
1.15279
-0.645481
-0.645482
-0.645479
-0.645378
-0.645677
-0.627445
-0.581934
-0.521477
-0.448843
-0.360674
-0.257507
-0.163248
0.0476529
0.345799
0.65388
0.931562
1.15072
1.29664
1.37516
1.40045
-0.645061
-0.646327
-0.649725
-0.655298
-0.658077
-0.636891
-0.587395
-0.524743
-0.447327
-0.351546
-0.247743
-0.146069
0.0309585
0.324698
0.637038
0.914659
1.14317
1.28419
1.34845
1.36557
-0.646737
-0.647634
-0.646253
-0.641125
-0.636868
-0.625443
-0.592339
-0.535209
-0.452506
-0.351949
-0.248846
-0.148981
-0.02046
0.244452
0.514998
0.752102
0.939378
1.04965
1.09745
1.10886
-0.677896
-0.675077
-0.656184
-0.614769
-0.584792
-0.602214
-0.607721
-0.552968
-0.462743
-0.357444
-0.25589
-0.15822
-0.0561165
0.133995
0.356739
0.539893
0.681982
0.761638
0.795016
0.801282
-0.746286
-0.743743
-0.742188
-0.740429
-0.731847
-0.727381
-0.684027
-0.587271
-0.477509
-0.364602
-0.264462
-0.179029
-0.103734
0.0345988
0.202858
0.341191
0.447017
0.503046
0.525124
0.527736
-0.879903
-0.898192
-0.944145
-0.986564
-0.985326
-0.937144
-0.797613
-0.63335
-0.488868
-0.367753
-0.272938
-0.200039
-0.145649
-0.0460716
0.0765716
0.176395
0.248993
0.286768
0.300472
0.301809
-0.971913
-0.996513
-1.03968
-1.07264
-1.06852
-1.00748
-0.836572
-0.641065
-0.483031
-0.360406
-0.272793
-0.212476
-0.169655
-0.102379
-0.0218927
0.0452473
0.0915586
0.11434
0.122392
0.121399
-0.882757
-0.90432
-0.939861
-0.970694
-0.969579
-0.90281
-0.739481
-0.575954
-0.439132
-0.334197
-0.26165
-0.214037
-0.177194
-0.133588
-0.089938
-0.0571964
-0.0367121
-0.0288938
-0.0262631
-0.0268131
-0.600201
-0.619024
-0.653396
-0.688793
-0.699591
-0.651523
-0.551075
-0.448419
-0.360706
-0.290391
-0.238761
-0.203591
-0.172957
-0.150468
-0.134597
-0.126541
-0.126871
-0.129897
-0.130864
-0.131032
-0.249565
-0.260188
-0.282304
-0.313263
-0.339382
-0.342856
-0.329842
-0.301754
-0.269802
-0.237185
-0.211591
-0.191238
-0.173254
-0.163728
-0.16199
-0.167809
-0.178336
-0.184474
-0.185149
-0.184742
0.00954909
0.00440844
-0.0107168
-0.0388794
-0.0792165
-0.122436
-0.154413
-0.175775
-0.184807
-0.184933
-0.184363
-0.185739
-0.183979
-0.177268
-0.173457
-0.17791
-0.185119
-0.188764
-0.188737
-0.188544
0.133775
0.130772
0.119618
0.094482
0.0530915
0.00149869
-0.048269
-0.0891943
-0.118473
-0.139315
-0.158572
-0.183042
-0.197974
-0.183434
-0.173309
-0.166408
-0.165543
-0.164483
-0.163642
-0.163819
0.165151
0.163153
0.154981
0.135351
0.101511
0.0574534
0.0103984
-0.0333526
-0.0698277
-0.0998506
-0.129243
-0.166092
-0.186859
-0.166322
-0.146553
-0.136983
-0.131822
-0.129698
-0.129313
-0.129889
0.154596
0.153264
0.147673
0.133904
0.109674
0.0768046
0.0388962
0.0010752
-0.0333335
-0.0633395
-0.0907221
-0.119233
-0.129076
-0.115092
-0.103806
-0.0989004
-0.0962894
-0.0955367
-0.0958028
-0.0964216
0.131008
0.130208
0.126647
0.117639
0.101341
0.0783242
0.0503051
0.0209202
-0.00673889
-0.0298756
-0.0448417
-0.0549041
-0.0530079
-0.0505438
-0.0541288
-0.0582766
-0.0608493
-0.0622117
-0.0630139
-0.0636753
0.106013
0.105624
0.103513
0.0979416
0.0874834
0.0721441
0.0527545
0.0317685
0.0121531
-0.00188664
-0.00465141
0.00614758
0.019646
0.00693361
-0.0095924
-0.0217348
-0.0286695
-0.0320288
-0.0335178
-0.0342015
0.0834281
0.0832061
0.0820444
0.0787618
0.0723368
0.0625665
0.049907
0.036078
0.0238356
0.0176788
0.0244054
0.0431406
0.0589642
0.0425209
0.021585
0.0064064
-0.00251541
-0.00702512
-0.00919141
-0.00981486
0.0635796
0.0635233
0.0629446
0.0611958
0.057355
0.0514996
0.043771
0.0354293
0.0290171
0.0287553
0.0400314
0.0588624
0.07015
0.0552356
0.0374947
0.0245461
0.0169708
0.0121586
0.0097897
0.00920544
0.0460118
0.0460387
0.0458118
0.0449426
0.0430016
0.0397747
0.0354407
0.0309997
0.0285784
0.0318175
0.0447929
0.0612753
0.0670437
0.0551258
0.0423839
0.0331176
0.0273436
0.0235931
0.0216935
0.0212603
0.0303151
0.0303708
0.0303157
0.0300429
0.0291653
0.0276166
0.025465
0.0234805
0.0233426
0.0280489
0.0408455
0.0574321
0.0603112
0.048834
0.0392378
0.0338573
0.0306401
0.0282928
0.0270618
0.0266617
0.0160594
0.0161306
0.0161806
0.0161413
0.015884
0.015313
0.0145243
0.013868
0.0144355
0.0184283
0.0293594
0.043443
0.046013
0.0352915
0.0278452
0.0253448
0.0245069
0.0247781
0.0238457
0.0232747
0.00284106
0.00288768
0.00286948
0.00295639
0.00314728
0.00318882
0.00303972
0.00283199
0.0028362
0.00328963
0.00497333
0.00976441
0.0151098
0.0166707
0.0107595
0.00915096
0.00794264
0.00592173
0.0053855
0.00531069
-0.0827091
0.0834002
0.277132
0.446138
0.580839
0.686498
0.773637
0.847879
0.881846
0.858604
0.217598
0.337637
0.466692
0.578065
0.671749
0.749114
0.811731
0.856227
0.8785
0.890668
0.434804
0.517072
0.605254
0.683013
0.749824
0.805704
0.850161
0.882677
0.906238
0.924283
0.594528
0.653452
0.714533
0.771261
0.820533
0.862395
0.896808
0.924296
0.946992
0.96533
0.719212
0.762034
0.807737
0.851271
0.889748
0.923372
0.952176
0.976175
0.996502
1.01436
0.823064
0.855771
0.893711
0.929087
0.961579
0.990722
1.0162
1.03764
1.05545
1.07281
0.915323
0.94392
0.977777
1.00982
1.03968
1.06679
1.09049
1.11018
1.12566
1.14274
1.00374
1.03288
1.06682
1.09881
1.12836
1.15491
1.17775
1.19621
1.20957
1.2266
1.09895
1.13212
1.16873
1.20227
1.23229
1.25845
1.28038
1.29765
1.3095
1.3269
1.21389
1.25169
1.29031
1.32454
1.35386
1.3786
1.39896
1.41484
1.4263
1.44436
1.35879
1.39732
1.43345
1.46412
1.48979
1.51187
1.53092
1.54645
1.55887
1.57686
1.53384
1.56546
1.59163
1.61407
1.63404
1.65276
1.67047
1.68694
1.70229
1.72035
1.72245
1.73964
1.75467
1.7709
1.7868
1.80133
1.81453
1.82846
1.846
1.86615
1.90416
1.91369
1.92523
1.93604
1.94532
1.9549
1.96568
1.97705
1.98841
2.00376
2.11139
2.11505
2.1001
2.08529
2.07902
2.08469
2.10317
2.13348
2.16565
2.19231
2.41771
2.28284
2.2062
2.16382
2.14639
2.15036
2.17775
2.23417
2.33679
2.56115
0.730055
0.727927
0.723444
0.714821
0.7026
0.690476
0.680254
0.672368
0.666765
0.663531
0.6632
0.665962
0.671083
0.678318
0.687715
0.69926
0.711914
0.722952
0.729065
0.73212
0.654502
0.660349
0.666684
0.671179
0.673652
0.673332
0.670601
0.666802
0.663307
0.661068
0.660946
0.663168
0.666849
0.671151
0.674967
0.676856
0.675924
0.672445
0.667284
0.660663
0.646066
0.648363
0.651768
0.654766
0.656845
0.658347
0.65911
0.658804
0.657795
0.656935
0.657137
0.65859
0.660425
0.661744
0.661934
0.661051
0.659507
0.657174
0.653913
0.650994
0.640541
0.641627
0.643461
0.645842
0.64787
0.649303
0.650332
0.651097
0.651517
0.651764
0.652286
0.653122
0.653741
0.653823
0.653421
0.652581
0.651117
0.649037
0.646954
0.645572
0.635317
0.63598
0.637089
0.638797
0.640583
0.642222
0.643527
0.644557
0.645461
0.64628
0.647044
0.647628
0.647846
0.647697
0.647143
0.646098
0.644677
0.643139
0.641825
0.641046
0.630316
0.630776
0.631563
0.632865
0.634357
0.635881
0.637357
0.638671
0.639831
0.64092
0.641876
0.642481
0.642654
0.642401
0.64172
0.640742
0.639625
0.638499
0.637589
0.637072
0.625456
0.6258
0.626412
0.627484
0.628783
0.630165
0.631616
0.63308
0.63448
0.635798
0.636955
0.63769
0.637901
0.637652
0.637071
0.636309
0.63547
0.634612
0.633944
0.633567
0.620681
0.620949
0.621443
0.622356
0.623531
0.624837
0.626245
0.627754
0.629325
0.630888
0.632291
0.633212
0.633554
0.633464
0.633095
0.632553
0.631919
0.631291
0.630805
0.630517
0.615911
0.616123
0.616535
0.617337
0.618433
0.619692
0.621092
0.62265
0.624356
0.626161
0.627857
0.629046
0.629633
0.62979
0.629654
0.629336
0.628911
0.628476
0.628131
0.627906
0.611056
0.611227
0.611579
0.612309
0.613359
0.614598
0.616028
0.617672
0.619539
0.621604
0.62365
0.625203
0.626119
0.626567
0.626688
0.626603
0.626393
0.626133
0.625904
0.625725
0.606026
0.606164
0.606475
0.607161
0.608196
0.609459
0.610958
0.612731
0.614813
0.617195
0.619668
0.621674
0.622985
0.623773
0.624185
0.62435
0.624353
0.624263
0.624133
0.62399
0.600733
0.600844
0.601127
0.601793
0.602847
0.604181
0.605793
0.60775
0.610113
0.612896
0.615897
0.618447
0.620224
0.621404
0.622147
0.622584
0.622809
0.622891
0.622848
0.622732
0.595078
0.595166
0.595433
0.596104
0.597213
0.598661
0.60044
0.602648
0.605371
0.608661
0.612308
0.615512
0.617841
0.619477
0.620593
0.621348
0.621823
0.622066
0.6221
0.622004
0.588952
0.589019
0.589279
0.589979
0.591181
0.592788
0.594799
0.597338
0.600521
0.604442
0.608878
0.612867
0.615853
0.618024
0.61957
0.620681
0.62143
0.621849
0.621957
0.621878
0.582224
0.582271
0.582534
0.583284
0.584618
0.586442
0.588758
0.59172
0.595484
0.600186
0.60558
0.610514
0.61428
0.617084
0.619134
0.620644
0.621712
0.622321
0.622502
0.622436
0.574739
0.574768
0.575036
0.575859
0.577371
0.579476
0.582182
0.585682
0.590174
0.595834
0.602392
0.608458
0.613149
0.616699
0.619349
0.621338
0.622766
0.623578
0.62383
0.623775
0.566296
0.56631
0.566583
0.567505
0.569253
0.571703
0.574911
0.579091
0.584488
0.591328
0.599296
0.606714
0.612502
0.616928
0.620286
0.622846
0.624682
0.625721
0.626045
0.625997
0.55659
0.556575
0.556905
0.557969
0.560002
0.562911
0.566757
0.571791
0.578319
0.586608
0.59628
0.605306
0.612387
0.617846
0.622032
0.625262
0.627572
0.628856
0.629252
0.629207
0.545324
0.545285
0.545661
0.546919
0.549324
0.552822
0.557479
0.563597
0.571539
0.581614
0.593338
0.604266
0.612858
0.619526
0.624685
0.628682
0.631537
0.633083
0.633549
0.633503
0.532013
0.531946
0.532402
0.533914
0.536805
0.541071
0.54678
0.554289
0.564016
0.57629
0.590475
0.603635
0.613978
0.622036
0.628328
0.633208
0.636669
0.638486
0.639013
0.638961
0.516
0.515905
0.516487
0.518352
0.521896
0.527189
0.534293
0.543616
0.555616
0.570602
0.587722
0.603472
0.615812
0.625449
0.633026
0.638906
0.643024
0.645108
0.64568
0.645614
0.496345
0.496223
0.497007
0.49939
0.503851
0.510573
0.519581
0.531322
0.546246
0.564575
0.585157
0.603861
0.61844
0.629837
0.638822
0.645817
0.650612
0.65293
0.653519
0.653433
0.471617
0.471479
0.4726
0.475784
0.481636
0.490448
0.502157
0.517187
0.535885
0.558302
0.582908
0.604911
0.621935
0.635241
0.64575
0.653922
0.659359
0.661843
0.662412
0.662298
0.439496
0.439381
0.441116
0.44569
0.453851
0.465921
0.481592
0.501137
0.524664
0.551988
0.581169
0.606762
0.626374
0.641693
0.653792
0.663138
0.66909
0.671625
0.672126
0.671977
0.39581
0.395859
0.398945
0.406414
0.418857
0.436238
0.457776
0.483405
0.512944
0.545992
0.580212
0.60958
0.631842
0.649187
0.662858
0.673276
0.679503
0.681917
0.6823
0.682117
0.332747
0.333962
0.341503
0.355433
0.375703
0.401534
0.431335
0.464712
0.501366
0.540788
0.580327
0.613514
0.638376
0.657661
0.672749
0.683922
0.690124
0.692179
0.692393
0.692189
0.258007
0.259789
0.274221
0.298139
0.329366
0.365177
0.403984
0.44561
0.489873
0.536296
0.581953
0.619805
0.647957
0.669642
0.686355
0.698221
0.704174
0.705929
0.706101
0.705987
0.180919
0.187143
0.208452
0.242645
0.2843
0.329796
0.377571
0.427492
0.479438
0.532962
0.584898
0.627542
0.659039
0.683182
0.701702
0.713849
0.719115
0.720377
0.720486
0.720445
0.117847
0.126391
0.152273
0.1935
0.243328
0.29708
0.352938
0.410625
0.469915
0.530287
0.588234
0.635384
0.669978
0.696237
0.715831
0.728108
0.733153
0.734295
0.73442
0.734439
0.0665509
0.0756926
0.10513
0.151605
0.2076
0.268013
0.330715
0.395266
0.461256
0.528033
0.591688
0.643131
0.680626
0.708892
0.729729
0.742364
0.747187
0.748366
0.748582
0.748647
0.0236407
0.0330626
0.0649513
0.11543
0.17649
0.24243
0.310934
0.381485
0.453513
0.526224
0.595276
0.650824
0.691128
0.721353
0.743372
0.756491
0.76156
0.76298
0.763197
0.763291
-0.0132523
-0.00372429
0.0299995
0.0836839
0.148934
0.219591
0.29316
0.369044
0.446558
0.524765
0.598912
0.658401
0.701438
0.733611
0.756958
0.770759
0.776216
0.777739
0.777986
0.778076
-0.0458077
-0.036251
-0.00112188
0.0552697
0.124034
0.198764
0.276821
0.357505
0.440048
0.523391
0.602396
0.665686
0.711374
0.745427
0.769973
0.784632
0.790507
0.792155
0.79239
0.792456
-0.0753163
-0.0657285
-0.0294471
0.0292805
0.101058
0.179356
0.261405
0.34645
0.433651
0.521853
0.605521
0.672489
0.720742
0.756584
0.78235
0.797685
0.804051
0.805821
0.80606
0.806109
-0.102667
-0.0930415
-0.0557617
0.00499889
0.079451
0.160911
0.246538
0.335562
0.427096
0.519904
0.608083
0.678644
0.729379
0.766938
0.793785
0.809795
0.816573
0.818425
0.818653
0.818671
-0.128434
-0.118753
-0.0805393
-0.0180645
0.0588011
0.143085
0.231938
0.324596
0.420158
0.517357
0.609948
0.684068
0.737238
0.776431
0.804288
0.82075
0.827813
0.829753
0.82997
0.829946
-0.153115
-0.143295
-0.104216
-0.0402044
0.0388251
0.125631
0.217398
0.313377
0.4127
0.51409
0.611016
0.688716
0.744321
0.785076
0.813803
0.830638
0.837817
0.839775
0.83999
0.839942
-0.17698
-0.166952
-0.127141
-0.0616209
0.0193303
0.108386
0.202785
0.301802
0.404616
0.510005
0.611212
0.692559
0.750664
0.792964
0.822443
0.839497
0.846659
0.848588
0.848774
0.848711
-0.200142
-0.189915
-0.149366
-0.0824605
0.000195635
0.0912716
0.18803
0.289805
0.395844
0.505026
0.61047
0.695586
0.756331
0.800232
0.830357
0.847472
0.854531
0.856366
0.856506
0.856415
-0.222782
-0.212268
-0.17098
-0.102814
-0.0186356
0.0742384
0.173103
0.277366
0.386364
0.499122
0.608731
0.697771
0.761385
0.807023
0.837754
0.854764
0.861565
0.863247
0.863333
0.863221
-0.244857
-0.234083
-0.192088
-0.122734
-0.0371807
0.0572858
0.158024
0.264508
0.376187
0.492268
0.60594
0.699067
0.765876
0.813498
0.84483
0.861529
0.867884
0.869328
0.869332
0.869197
-0.266438
-0.255372
-0.212628
-0.142213
-0.0554292
0.0404375
0.142825
0.251277
0.365351
0.484473
0.602051
0.699406
0.769798
0.819789
0.851844
0.868021
0.873607
0.874656
0.874564
0.874419
-0.287368
-0.276079
-0.232596
-0.161212
-0.0733428
0.0237567
0.127563
0.237736
0.35392
0.475785
0.597033
0.698703
0.773085
0.825977
0.859114
0.874658
0.879068
0.879394
0.879127
0.878996
-0.307786
-0.296165
-0.251988
-0.179721
-0.0908955
0.00727651
0.112323
0.223958
0.341974
0.466272
0.590882
0.696846
0.775599
0.832022
0.866902
0.882071
0.884932
0.883869
0.883117
0.883012
-0.327535
-0.31561
-0.270778
-0.197704
-0.108014
-0.00892264
0.0971823
0.21006
0.329616
0.455992
0.58363
0.693721
0.77714
0.837719
0.875231
0.890961
0.892537
0.889307
0.886984
0.886204
-0.346677
-0.334461
-0.288918
-0.215111
-0.124667
-0.024775
0.0822212
0.196117
0.316954
0.445076
0.575335
0.689212
0.777457
0.842686
0.883636
0.901497
0.903486
0.898625
0.892226
0.884132
-0.365133
-0.352675
-0.306501
-0.232098
-0.141059
-0.0405466
0.0671148
0.181744
0.303557
0.433043
0.565492
0.682799
0.776102
0.846643
0.891554
0.913134
0.918242
0.913191
0.902349
0.89756
-0.382856
-0.370177
-0.323511
-0.248639
-0.157201
-0.0562321
0.0518731
0.166919
0.289375
0.419769
0.553891
0.674074
0.77226
0.8488
0.897048
0.921753
0.929103
0.927289
0.88921
0.837488
-0.399563
-0.386189
-0.339802
-0.264666
-0.173194
-0.0719922
0.0364383
0.151752
0.274456
0.405299
0.540435