/*--------------------------------*- C++ -*----------------------------------*\
  =========                 |
  \\      /  F ield         | OpenFOAM: The Open Source CFD Toolbox
   \\    /   O peration     | Website:  https://openfoam.org
    \\  /    A nd           | Version:  9
     \\/     M anipulation  |
\*---------------------------------------------------------------------------*/
FoamFile
{
    format      ascii;
    class       volScalarField;
    location    "59";
    object      p;
}
// * * * * * * * * * * * * * * * * * * * * * * * * * * * * * * * * * * * * * //

dimensions      [0 2 -2 0 0 0 0];

internalField   nonuniform List<scalar> 
8800
(
0.765597
0.71781
0.679121
0.650128
0.629266
0.614438
0.603848
0.596376
0.591568
0.589527
0.590815
0.59502
0.601677
0.611001
0.623786
0.641524
0.666304
0.700246
0.742797
0.801499
0.596845
0.604524
0.612
0.615309
0.613807
0.608732
0.602249
0.596179
0.591466
0.588637
0.588377
0.590901
0.595403
0.601359
0.608135
0.614419
0.618063
0.617328
0.611911
0.603222
0.575247
0.581406
0.585534
0.588479
0.590531
0.591138
0.590037
0.587941
0.585938
0.585049
0.586032
0.588431
0.591242
0.593431
0.594044
0.592849
0.59051
0.58712
0.582562
0.578801
0.569435
0.572086
0.574838
0.577242
0.578878
0.580043
0.58079
0.580916
0.580635
0.580606
0.581381
0.582569
0.583422
0.583496
0.582893
0.581806
0.579993
0.577425
0.575023
0.573519
0.564052
0.565477
0.567256
0.569289
0.571075
0.572419
0.573414
0.574221
0.574851
0.575438
0.576114
0.57663
0.576744
0.576467
0.575777
0.574533
0.572841
0.570995
0.569689
0.568857
0.558973
0.559893
0.561135
0.562702
0.564336
0.565864
0.567155
0.568232
0.569214
0.570133
0.570851
0.571201
0.571175
0.570747
0.569874
0.56868
0.567356
0.566099
0.565278
0.564726
0.554063
0.554733
0.555695
0.556997
0.558408
0.559869
0.561314
0.562648
0.563865
0.565002
0.565855
0.566248
0.566182
0.565686
0.564889
0.563948
0.56294
0.562019
0.561435
0.56103
0.549276
0.549792
0.550576
0.551706
0.552984
0.55436
0.555812
0.557296
0.558745
0.560113
0.561155
0.561655
0.56165
0.56128
0.560687
0.559969
0.559201
0.55852
0.558088
0.55777
0.54454
0.544951
0.545606
0.546612
0.547818
0.549147
0.550598
0.552166
0.55381
0.555442
0.556728
0.557418
0.557605
0.557452
0.55708
0.556572
0.556007
0.555519
0.555197
0.554939
0.539769
0.540104
0.54067
0.541596
0.542753
0.544067
0.545554
0.547219
0.549049
0.550968
0.55257
0.553552
0.554013
0.55411
0.553967
0.553681
0.553309
0.552979
0.552742
0.552525
0.534876
0.535153
0.535658
0.536538
0.537676
0.539014
0.540573
0.542377
0.544434
0.546686
0.548686
0.550045
0.550835
0.551218
0.551324
0.55126
0.55108
0.550891
0.550721
0.550534
0.529771
0.530004
0.53047
0.531333
0.532493
0.533898
0.535571
0.537568
0.539917
0.542582
0.54507
0.546881
0.548056
0.548767
0.54915
0.549317
0.549328
0.549267
0.549153
0.548986
0.524364
0.524562
0.525008
0.525885
0.527108
0.528624
0.530468
0.532723
0.535443
0.538627
0.541707
0.544055
0.54568
0.546765
0.547461
0.54787
0.54809
0.548148
0.548081
0.547928
0.518555
0.518725
0.519168
0.520088
0.521414
0.523092
0.525172
0.527767
0.530959
0.534786
0.538584
0.541573
0.543728
0.545242
0.546291
0.546995
0.547419
0.547593
0.547565
0.547421
0.512226
0.512372
0.512828
0.513819
0.515296
0.517196
0.51959
0.522617
0.526406
0.531023
0.535689
0.539445
0.542226
0.544246
0.545697
0.546718
0.547377
0.547672
0.547682
0.547542
0.505242
0.505362
0.505845
0.506941
0.508619
0.510811
0.513606
0.517184
0.521714
0.527296
0.533014
0.537687
0.541211
0.543826
0.545751
0.547139
0.548058
0.548477
0.54852
0.548382
0.497421
0.497519
0.498046
0.499281
0.501219
0.503781
0.50709
0.511362
0.51681
0.523575
0.530559
0.536327
0.540727
0.544042
0.546535
0.54835
0.54956
0.550109
0.550184
0.550042
0.488538
0.48864
0.48922
0.490611
0.492881
0.495925
0.499887
0.50503
0.511618
0.519827
0.528335
0.5354
0.540834
0.544972
0.548137
0.550454
0.55199
0.552678
0.552782
0.552634
0.478287
0.478369
0.47904
0.480657
0.483359
0.487022
0.49181
0.498049
0.506056
0.51603
0.526361
0.534956
0.541605
0.54671
0.550645
0.553551
0.555459
0.556294
0.556425
0.556266
0.466297
0.466364
0.467134
0.469063
0.472323
0.476779
0.482625
0.490253
0.500026
0.512149
0.524655
0.535046
0.543109
0.549342
0.554173
0.557763
0.560077
0.561059
0.561212
0.561039
0.45202
0.452075
0.452988
0.455332
0.459328
0.46483
0.472057
0.481468
0.493452
0.508189
0.523265
0.535742
0.545422
0.552954
0.558821
0.563181
0.565929
0.567055
0.56722
0.56703
0.434696
0.43474
0.435866
0.438792
0.443796
0.450714
0.459779
0.471511
0.486281
0.504189
0.522269
0.537126
0.548636
0.557628
0.564651
0.569868
0.573062
0.574314
0.574481
0.57427
0.413172
0.413214
0.414686
0.418492
0.424952
0.433861
0.445448
0.460246
0.478529
0.500242
0.521781
0.539294
0.552835
0.563441
0.571707
0.577849
0.581464
0.582805
0.582955
0.582722
0.385724
0.385786
0.387843
0.393065
0.401775
0.413611
0.42875
0.447619
0.470291
0.496503
0.521941
0.542357
0.558074
0.57041
0.580021
0.58707
0.591031
0.592397
0.592509
0.592255
0.349325
0.349485
0.352746
0.360582
0.373093
0.389394
0.409597
0.433813
0.461857
0.493254
0.522971
0.546449
0.56443
0.578548
0.589537
0.597388
0.601545
0.602845
0.602896
0.602624
0.298194
0.299167
0.305647
0.318844
0.33796
0.361164
0.388346
0.419321
0.453704
0.490868
0.525098
0.551698
0.571945
0.587802
0.600091
0.608536
0.612671
0.613801
0.613777
0.613493
0.223437
0.230672
0.245662
0.268894
0.297865
0.330319
0.366035
0.404796
0.44621
0.489633
0.528719
0.558692
0.581396
0.599162
0.612746
0.621624
0.625612
0.626557
0.626488
0.62624
0.143054
0.160189
0.184482
0.218408
0.257608
0.299445
0.343769
0.390516
0.439382
0.489779
0.534653
0.568845
0.594618
0.614706
0.629854
0.638986
0.642524
0.643197
0.643144
0.642989
0.0760676
0.0962544
0.128243
0.171248
0.21949
0.270174
0.32285
0.377438
0.433609
0.490778
0.54118
0.579328
0.60796
0.630067
0.646189
0.655196
0.658409
0.659008
0.65901
0.658904
0.0212073
0.0430467
0.0805385
0.129966
0.185355
0.243495
0.303561
0.365344
0.428386
0.492021
0.547691
0.589554
0.620787
0.644632
0.661716
0.670874
0.67406
0.674723
0.674752
0.674674
-0.0244694
-0.00145
0.0398242
0.0943521
0.155486
0.219785
0.286205
0.354398
0.423745
0.493432
0.554092
0.59948
0.633187
0.658754
0.676841
0.686521
0.689954
0.690514
0.690571
0.690524
-0.0632266
-0.0395393
0.00459582
0.0631691
0.129138
0.198682
0.270623
0.344511
0.419597
0.49492
0.560303
0.609067
0.645171
0.672439
0.691598
0.701947
0.705596
0.706204
0.706276
0.706257
-0.0970834
-0.0729573
-0.0265548
0.0353505
0.105403
0.179506
0.256341
0.335372
0.415744
0.496348
0.566217
0.618206
0.656608
0.685532
0.705691
0.716679
0.720662
0.721374
0.721472
0.721472
-0.12753
-0.103017
-0.0547685
0.0099849
0.0835586
0.16166
0.242888
0.326613
0.411891
0.497481
0.571629
0.626706
0.667282
0.697716
0.718881
0.73044
0.73475
0.735635
0.735743
0.735751
-0.155528
-0.130665
-0.0808369
-0.0136304
0.0630432
0.144688
0.229865
0.317889
0.407756
0.498098
0.57638
0.634422
0.677053
0.708864
0.7309
0.742992
0.747578
0.748594
0.748689
0.748686
-0.181876
-0.156616
-0.105323
-0.0360118
0.0434247
0.128228
0.216975
0.308958
0.403135
0.498037
0.580359
0.641298
0.685895
0.719
0.741745
0.754208
0.758992
0.760096
0.760186
0.760165
-0.20695
-0.18128
-0.128765
-0.0574928
0.0243976
0.112035
0.204018
0.299648
0.397876
0.497184
0.583503
0.647342
0.693854
0.72815
0.751475
0.764197
0.769072
0.770212
0.770276
0.770231
-0.231169
-0.204971
-0.151427
-0.0783161
0.00575344
0.0959325
0.190854
0.289839
0.391873
0.495444
0.585772
0.65257
0.701024
0.736451
0.760268
0.773064
0.777956
0.779082
0.779128
0.779058
-0.254666
-0.228051
-0.173375
-0.0986567
-0.012635
0.0798231
0.177399
0.279465
0.385062
0.492761
0.587134
0.657017
0.707513
0.74406
0.768243
0.781021
0.785843
0.786932
0.786959
0.786865
-0.277574
-0.250454
-0.194754
-0.118599
-0.03083
0.063663
0.163623
0.268493
0.377407
0.48908
0.587543
0.660709
0.71343
0.75116
0.775631
0.788252
0.792904
0.793906
0.793883
0.79377
-0.300025
-0.272344
-0.21565
-0.138178
-0.0488608
0.0474453
0.149535
0.256936
0.368901
0.484363
0.586949
0.663647
0.718879
0.75791
0.782584
0.794888
0.799227
0.800076
0.799999
0.799864
-0.322042
-0.293711
-0.236095
-0.157399
-0.0667019
0.0311941
0.135174
0.244829
0.359568
0.478585
0.585292
0.665791
0.723914
0.764489
0.789306
0.801046
0.804882
0.805507
0.805377
0.805231
-0.343471
-0.314525
-0.256029
-0.176241
-0.0843261
0.0149695
0.120594
0.232242
0.349457
0.47176
0.582502
0.667072
0.728534
0.771072
0.796098
0.806989
0.810002
0.810271
0.810083
0.809939
-0.364294
-0.334763
-0.275438
-0.194663
-0.10168
-0.0011738
0.105882
0.219247
0.338644
0.463911
0.578529
0.667366
0.732664
0.777769
0.803368
0.813239
0.81491
0.814468
0.814172
0.814083
-0.38458
-0.354392
-0.2943
-0.212635
-0.118705
-0.0171566
0.0911196
0.205944
0.327213
0.455099
0.573325
0.666522
0.736129
0.784512
0.811491
0.820682
0.8205
0.818506
0.8178
0.818
-0.40416
-0.37339
-0.312562
-0.230099
-0.135344
-0.0328983
0.0764001
0.19244
0.315279
0.445413
0.566874
0.664364
0.738656
0.790959
0.820458
0.830332
0.828728
0.82432
0.821727
0.821338
-0.423128
-0.391748
-0.330242
-0.247086
-0.151631
-0.0484416
0.0616688
0.17868
0.302775
0.434782
0.559041
0.660618
0.739942
0.796591
0.829636
0.842453
0.842056
0.835523
0.827447
0.813456
-0.441413
-0.409454
-0.347456
-0.263797
-0.167846
-0.0641117
0.0465182
0.164194
0.28918
0.422587
0.549198
0.654523
0.739442
0.800702
0.837343
0.854928
0.856376
0.843721
0.823826
0.812323
-0.458839
-0.426643
-0.364013
-0.28003
-0.183641
-0.0795697
0.0311712
0.149299
0.274791
0.409077
0.537394
0.645586
0.7363
0.802117
0.839402
0.856824
0.860883
0.83739
0.769763
0.739442
-0.474743
-0.444565
-0.379587
-0.295298
-0.198228
-0.0943167
0.0159419
0.134225
0.259824
0.39437
0.52355
0.633481
0.72905
0.800139
0.830778
0.842872
0.831493
0.776978
0.707885
0.665392
-0.530156
-0.460375
-0.393709
-0.310728
-0.213228
-0.109815
0.000761998
0.118685
0.243905
0.378
0.507043
0.61753
0.713763
0.791346
0.795473
0.797481
0.746983
0.676129
0.599296
0.556542
-0.491594
-0.475586
-0.414804
-0.330829
-0.235416
-0.132062
-0.0225198
0.0947358
0.218941
0.351588
0.47868
0.587514
0.675884
0.758353
0.744223
0.629799
0.52388
0.450194
0.376525
0.406753
-0.522412
-0.493115
-0.431419
-0.348268
-0.252865
-0.149643
-0.0398436
0.0767615
0.199881
0.330704
0.454966
0.559576
0.638306
0.682378
0.633187
0.483247
0.354727
0.262872
0.163903
0.213684
-0.546145
-0.513912
-0.450993
-0.367689
-0.272174
-0.169059
-0.0593535
0.0564036
0.178104
0.306503
0.426992
0.525374
0.595359
0.604752
0.497429
0.323907
0.170693
0.0514815
-0.079845
-0.0471841
-0.569366
-0.535598
-0.471493
-0.387267
-0.291668
-0.188708
-0.0795346
0.0352448
0.15533
0.280922
0.396688
0.487185
0.541915
0.519762
0.360637
0.163926
-0.0266445
-0.194715
-0.383312
-0.401943
-0.591994
-0.557769
-0.492768
-0.407763
-0.312018
-0.209282
-0.100768
0.0129083
0.131119
0.253503
0.363846
0.44642
0.481588
0.423284
0.230503
0.0198076
-0.197501
-0.386741
-0.62861
-0.926227
-0.614914
-0.580679
-0.515131
-0.429634
-0.3337
-0.231135
-0.123209
-0.0106714
0.105555
0.224467
0.329078
0.403205
0.417312
0.307957
0.117305
-0.0926669
-0.29694
-0.469176
-0.538446
-0.617399
-0.639085
-0.604778
-0.538925
-0.453193
-0.357206
-0.254906
-0.147661
-0.0364381
0.0774844
0.192393
0.290891
0.354023
0.343139
0.200181
0.0167378
-0.174196
-0.337008
-0.429881
-0.453953
-0.46986
-0.664809
-0.63037
-0.56432
-0.478517
-0.382665
-0.280802
-0.174482
-0.0648776
0.0463199
0.156579
0.248493
0.297443
0.269018
0.100154
-0.0743925
-0.240243
-0.366731
-0.405794
-0.418665
-0.41999
-0.692289
-0.657629
-0.591379
-0.505601
-0.410023
-0.308827
-0.203687
-0.0960381
0.0119963
0.117032
0.201449
0.236102
0.188139
0.00778946
-0.157721
-0.306221
-0.38223
-0.399382
-0.400731
-0.400547
-0.721583
-0.686619
-0.620124
-0.53444
-0.439295
-0.338966
-0.235277
-0.129932
-0.0254781
0.073819
0.149844
0.172972
0.0889393
-0.0765274
-0.233881
-0.356236
-0.39282
-0.391138
-0.390208
-0.389597
-0.752403
-0.717151
-0.650447
-0.56494
-0.470388
-0.371159
-0.269217
-0.16653
-0.0660681
0.0270408
0.0945379
0.100839
-0.00140875
-0.155013
-0.294347
-0.369823
-0.380223
-0.382984
-0.383709
-0.383422
-0.784194
-0.748785
-0.682089
-0.596868
-0.50311
-0.405244
-0.305349
-0.205698
-0.109594
-0.0229531
0.0359568
0.0275417
-0.0825159
-0.221577
-0.33826
-0.370111
-0.378201
-0.379575
-0.379385
-0.379119
-0.816482
-0.780955
-0.7146
-0.62982
-0.537109
-0.44089
-0.343384
-0.247142
-0.155778
-0.0755046
-0.0270009
-0.0421483
-0.156887
-0.275628
-0.368799
-0.384466
-0.376928
-0.376144
-0.376121
-0.375918
-0.848364
-0.812921
-0.747072
-0.663204
-0.57183
-0.477614
-0.382862
-0.290378
-0.204146
-0.130044
-0.0913622
-0.106823
-0.221537
-0.317903
-0.371145
-0.381498
-0.37771
-0.375698
-0.374824
-0.3745
-0.87825
-0.843499
-0.778534
-0.696073
-0.60649
-0.514699
-0.42311
-0.334705
-0.253884
-0.186072
-0.150824
-0.179871
-0.273532
-0.353115
-0.363118
-0.37698
-0.378538
-0.375739
-0.374709
-0.374158
-0.904524
-0.870865
-0.807842
-0.727213
-0.640032
-0.551189
-0.463239
-0.379234
-0.303855
-0.242727
-0.207905
-0.251535
-0.320807
-0.361622
-0.393261
-0.386496
-0.383196
-0.382598
-0.382574
-0.382117
-0.925046
-0.893099
-0.832949
-0.755193
-0.671147
-0.5859
-0.502123
-0.422879
-0.352885
-0.298585
-0.267462
-0.31568
-0.366115
-0.381819
-0.407627
-0.408467
-0.41141
-0.414357
-0.414212
-0.413146
-0.937533
-0.90829
-0.851861
-0.778124
-0.698306
-0.617458
-0.53847
-0.464348
-0.399771
-0.351903
-0.325765
-0.378475
-0.434133
-0.440479
-0.427113
-0.454461
-0.46877
-0.469702
-0.465674
-0.464845
-0.939326
-0.914145
-0.86263
-0.79415
-0.719776
-0.64444
-0.570852
-0.502183
-0.443079
-0.400883
-0.375363
-0.435144
-0.547789
-0.651554
-0.594215
-0.53442
-0.498011
-0.481562
-0.475202
-0.474024
-0.928268
-0.907966
-0.863066
-0.80164
-0.734038
-0.665266
-0.597862
-0.534831
-0.481046
-0.442979
-0.416532
-0.459727
-0.550963
-0.803513
-0.697647
-0.529026
-0.45022
-0.428812
-0.423089
-0.420521
-0.902246
-0.886926
-0.851338
-0.799352
-0.740102
-0.67892
-0.61821
-0.560866
-0.511402
-0.476319
-0.434998
-0.381574
-0.284124
-0.271087
-0.287301
-0.297964
-0.31837
-0.328248
-0.330869
-0.329334
-0.863768
-0.85385
-0.828187
-0.787455
-0.737967
-0.685152
-0.631342
-0.579214
-0.532838
-0.497946
-0.455879
-0.284925
0.021219
0.385563
0.237024
-0.0637182
-0.241392
-0.309083
-0.3282
-0.333042
-0.819539
-0.813891
-0.798508
-0.768766
-0.729634
-0.684875
-0.637632
-0.589912
-0.54561
-0.509322
-0.470961
-0.397977
-0.306225
-0.253311
-0.382115
-0.509387
-0.566323
-0.572592
-0.581458
-0.593546
-0.779467
-0.776044
-0.768615
-0.748844
-0.718129
-0.680351
-0.638403
-0.594163
-0.550159
-0.516198
-0.494441
-0.642095
-1.12079
-1.73406
-2.00113
-1.9706
-1.82138
-1.56543
-1.34125
-1.2934
-0.750696
-0.748521
-0.74477
-0.73248
-0.707997
-0.674755
-0.635758
-0.591978
-0.546451
-0.50261
-0.486339
-0.574077
-0.947453
-1.43236
-1.78711
-1.76549
-1.58978
-1.37024
-1.16548
-1.09303
-0.729412
-0.728595
-0.72739
-0.721223
-0.702094
-0.671062
-0.631701
-0.585844
-0.533375
-0.472746
-0.427581
-0.406287
-0.411221
-0.302137
-0.133324
0.0978743
0.269895
0.378979
0.442596
0.467856
-0.717521
-0.717156
-0.716514
-0.713726
-0.699868
-0.669884
-0.628152
-0.578038
-0.518275
-0.450426
-0.37589
-0.300804
-0.117524
0.285634
0.709398
1.09154
1.34493
1.45873
1.50371
1.51322
-0.710457
-0.710073
-0.709132
-0.708151
-0.700149
-0.671708
-0.626676
-0.570466
-0.504825
-0.421766
-0.32228
-0.218135
0.0444865
0.49826
0.96923
1.39944
1.66849
1.7881
1.82465
1.82908
-0.708537
-0.708371
-0.708049
-0.708538
-0.704355
-0.677304
-0.627685
-0.566534
-0.492116
-0.399915
-0.293586
-0.179339
0.0519846
0.460365
0.864088
1.21948
1.45399
1.55788
1.58739
1.59196
-0.707255
-0.70818
-0.710909
-0.7145
-0.712085
-0.683591
-0.6318
-0.566799
-0.48635
-0.390767
-0.283193
-0.17713
0.00194554
0.33281
0.636001
0.881911
1.04179
1.11869
1.15355
1.16499
-0.702475
-0.703112
-0.70251
-0.700745
-0.698085
-0.679293
-0.638082
-0.572249
-0.48731
-0.388103
-0.28892
-0.197203
-0.0608167
0.195209
0.4297
0.60716
0.725272
0.792815
0.83048
0.844486
-0.719214
-0.715628
-0.698772
-0.669732
-0.657463
-0.672263
-0.653242
-0.585323
-0.493819
-0.391596
-0.298687
-0.219301
-0.111582
0.09972
0.292296
0.438299
0.550034
0.617236
0.650636
0.660775
-0.784382
-0.779734
-0.771222
-0.763637
-0.759197
-0.758957
-0.70406
-0.608533
-0.500269
-0.393436
-0.307006
-0.238688
-0.155607
0.0164502
0.17699
0.307363
0.407304
0.467403
0.494191
0.500787
-0.907206
-0.920323
-0.957448
-0.986333
-0.979489
-0.92544
-0.785151
-0.635798
-0.503694
-0.391446
-0.306047
-0.24292
-0.178987
-0.0436661
0.0887577
0.192435
0.273758
0.32219
0.343076
0.347022
-0.991615
-1.01483
-1.05387
-1.08026
-1.06913
-0.993
-0.813165
-0.634761
-0.491761
-0.379044
-0.296997
-0.23635
-0.176929
-0.0787148
0.0222408
0.100896
0.161545
0.196499
0.210594
0.212679
-0.892767
-0.916015
-0.951435
-0.980056
-0.971193
-0.884363
-0.723774
-0.573499
-0.449702
-0.351359
-0.27743
-0.220297
-0.16535
-0.101535
-0.0287793
0.0304477
0.0767208
0.103023
0.114251
0.114046
-0.600103
-0.61728
-0.646991
-0.676303
-0.67969
-0.630077
-0.543252
-0.455029
-0.377472
-0.308353
-0.251094
-0.205145
-0.165805
-0.122068
-0.0698221
-0.0249594
0.00990187
0.0294112
0.0358632
0.035333
-0.265387
-0.273914
-0.292346
-0.31928
-0.343898
-0.350172
-0.342831
-0.322437
-0.293951
-0.258249
-0.221898
-0.190261
-0.169249
-0.143296
-0.105926
-0.0733443
-0.0489878
-0.0364334
-0.0326029
-0.0342851
-0.0391418
-0.0429112
-0.0553096
-0.0808849
-0.118689
-0.160304
-0.193003
-0.213182
-0.218642
-0.210416
-0.193606
-0.176353
-0.164699
-0.155114
-0.134399
-0.115794
-0.103262
-0.0991968
-0.0987991
-0.100389
0.0564925
0.0543453
0.0451419
0.022731
-0.0149629
-0.0611189
-0.104951
-0.140229
-0.162988
-0.172085
-0.168912
-0.161375
-0.157936
-0.156821
-0.154237
-0.151773
-0.152059
-0.154692
-0.156776
-0.157579
0.0740368
0.0724717
0.0656237
0.0485399
0.0189869
-0.0191708
-0.0597939
-0.0970164
-0.126411
-0.145176
-0.151105
-0.147398
-0.144363
-0.15258
-0.163316
-0.173013
-0.182811
-0.190451
-0.193355
-0.193788
0.0601493
0.0590079
0.0541906
0.0421789
0.0210041
-0.00768086
-0.0408659
-0.0743268
-0.105023
-0.129992
-0.144037
-0.145681
-0.144524
-0.160077
-0.176679
-0.189846
-0.200267
-0.20652
-0.208425
-0.208839
0.0384668
0.0376665
0.0343683
0.0261499
0.0113459
-0.00964501
-0.0357168
-0.0644937
-0.094296
-0.124129
-0.149686
-0.16758
-0.176626
-0.189438
-0.198091
-0.204381
-0.209411
-0.212047
-0.212964
-0.213531
0.0183608
0.0178056
0.0155678
0.00996778
-0.000361916
-0.0156659
-0.0358746
-0.0601902
-0.0885482
-0.122724
-0.163597
-0.209928
-0.237833
-0.235469
-0.225631
-0.219914
-0.217903
-0.217824
-0.217975
-0.218437
0.002979
0.00257512
0.00105951
-0.00276444
-0.00999919
-0.0212003
-0.0368158
-0.0570591
-0.0831511
-0.11892
-0.170052
-0.237051
-0.276595
-0.257652
-0.236035
-0.225648
-0.222305
-0.222163
-0.222072
-0.222049
-0.00701921
-0.00731683
-0.00835344
-0.0109511
-0.0159938
-0.0241007
-0.0359198
-0.0520709
-0.074023
-0.107038
-0.156434
-0.22095
-0.248368
-0.228273
-0.211458
-0.207622
-0.209653
-0.211692
-0.211804
-0.21145
-0.0121641
-0.0123618
-0.0130601
-0.0147448
-0.0181282
-0.023815
-0.0324131
-0.0446154
-0.0616916
-0.0864147
-0.121981
-0.163337
-0.17438
-0.164317
-0.161606
-0.168033
-0.175994
-0.17976
-0.180053
-0.179608
-0.0132631
-0.013385
-0.013821
-0.0148644
-0.0169741
-0.0206936
-0.0264979
-0.0348118
-0.0460783
-0.0609308
-0.0769637
-0.0894665
-0.0870843
-0.0868104
-0.0995606
-0.11401
-0.12438
-0.128734
-0.129416
-0.12933
-0.0112784
-0.0113428
-0.0115806
-0.0121077
-0.0132889
-0.0154606
-0.0189476
-0.0238876
-0.0301223
-0.0360514
-0.0353067
-0.0221998
-0.000897789
-0.0189916
-0.0430592
-0.0619313
-0.0723601
-0.0750377
-0.0760998
-0.0762947
-0.0071532
-0.00717329
-0.00725551
-0.00745691
-0.00795189
-0.00896036
-0.0106296
-0.0129468
-0.0155528
-0.0163067
-0.00848096
0.0129782
0.0361861
0.0172083
-0.0068223
-0.0231993
-0.0294809
-0.030992
-0.0314749
-0.0318969
-0.00166415
-0.00163959
-0.0016591
-0.00161335
-0.00154422
-0.00155358
-0.00176399
-0.0022483
-0.00267552
-0.00293826
-0.00163498
0.00371989
0.0119023
0.00649663
0.00268575
0.00140594
0.00127226
0.000487539
-0.00272804
-0.00348692
-0.1554
0.0111587
0.205536
0.375198
0.51066
0.617212
0.705253
0.780232
0.814447
0.791183
0.146387
0.266816
0.396366
0.508282
0.602546
0.680497
0.743609
0.788436
0.810873
0.822995
0.364619
0.447216
0.535764
0.613922
0.681122
0.737342
0.782064
0.814755
0.838411
0.856425
0.525022
0.584158
0.645585
0.702539
0.752056
0.794117
0.82868
0.856269
0.879021
0.897341
0.650184
0.693187
0.739053
0.782755
0.821374
0.855116
0.88401
0.908071
0.928432
0.94628
0.754332
0.787145
0.825194
0.860675
0.893255
0.922468
0.948005
0.969479
0.987316
1.00467
0.846773
0.875431
0.90936
0.94146
0.971381
0.998533
1.02227
1.04198
1.05747
1.07455
0.935299
0.96448
0.998465
1.03049
1.06007
1.08665
1.1095
1.12799
1.14135
1.15839
1.03057
1.06377
1.1004
1.13397
1.164
1.19018
1.21213
1.2294
1.24126
1.25866
1.14555
1.18337
1.222
1.25624
1.28558
1.31032
1.33069
1.34658
1.35804
1.37611
1.29048
1.32902
1.36515
1.39583
1.42151
1.4436
1.46265
1.47818
1.49061
1.5086
1.46555
1.49717
1.52334
1.54579
1.56576
1.58448
1.60219
1.61867
1.63402
1.65209
1.65415
1.67136
1.68639
1.70262
1.71852
1.73305
1.74626
1.76018
1.77772
1.79788
1.83587
1.84541
1.85695
1.86776
1.87704
1.88662
1.8974
1.90877
1.92013
1.93549
2.0431
2.04677
2.03182
2.01701
2.01073
2.01641
2.03489
2.0652
2.09737
2.12403
2.34942
2.21456
2.13792
2.09554
2.07811
2.08208
2.10948
2.16589
2.26851
2.49287
0.656195
0.654067
0.649583
0.640959
0.628736
0.616609
0.606382
0.598491
0.59288
0.589634
0.58929
0.592038
0.597149
0.604377
0.613767
0.625309
0.637961
0.648996
0.655108
0.658163
0.580646
0.586493
0.592826
0.597319
0.59979
0.599467
0.596733
0.592927
0.589423
0.587172
0.587036
0.589243
0.592913
0.597207
0.601017
0.602902
0.601966
0.598486
0.593323
0.586702
0.572216
0.574513
0.577917
0.580913
0.582989
0.584487
0.585245
0.584932
0.583914
0.583041
0.583227
0.584664
0.586486
0.587797
0.587979
0.587091
0.585543
0.583208
0.579945
0.577025
0.5667
0.567786
0.569619
0.571997
0.574022
0.575451
0.576474
0.57723
0.577639
0.577872
0.578376
0.579193
0.579798
0.579869
0.57946
0.578613
0.577145
0.575061
0.572976
0.571593
0.561488
0.562151
0.563259
0.564964
0.566746
0.568379
0.569678
0.570698
0.571589
0.572391
0.573134
0.573697
0.573898
0.573736
0.573172
0.572119
0.570692
0.56915
0.567832
0.567053
0.556502
0.556962
0.557748
0.559046
0.560534
0.562052
0.56352
0.564822
0.565967
0.567035
0.567966
0.568546
0.568699
0.568431
0.567736
0.566749
0.565625
0.564493
0.563579
0.563062
0.55166
0.552005
0.552616
0.553684
0.554978
0.556353
0.557794
0.559244
0.560626
0.56192
0.563047
0.563752
0.563938
0.563668
0.563073
0.562298
0.561449
0.560584
0.559912
0.559534
0.54691
0.547177
0.54767
0.548578
0.549748
0.551045
0.552441
0.553935
0.555484
0.557018
0.558385
0.559269
0.559581
0.559467
0.559078
0.55852
0.557874
0.557237
0.556746
0.556458
0.542167
0.54238
0.54279
0.543587
0.544676
0.545925
0.547311
0.548851
0.550532
0.552303
0.553955
0.5551
0.555649
0.555774
0.555614
0.555276
0.554835
0.554389
0.554038
0.553813
0.537346
0.537518
0.537869
0.538593
0.539635
0.540862
0.542276
0.543899
0.545735
0.547759
0.549753
0.551252
0.552121
0.552531
0.552621
0.552511
0.552282
0.552007
0.551771
0.551592
0.532359
0.532497
0.532806
0.533486
0.534511
0.535761
0.537241
0.538989
0.541035
0.543368
0.545778
0.547718
0.548972
0.549712
0.550086
0.550218
0.550198
0.550089
0.549951
0.549807
0.527115
0.527226
0.527508
0.528168
0.529211
0.53053
0.53212
0.534046
0.536367
0.539092
0.542017
0.544487
0.546195
0.547317
0.548012
0.548407
0.548599
0.54866
0.548609
0.548491
0.52152
0.521609
0.521874
0.522539
0.523635
0.525065
0.526819
0.528993
0.531667
0.534889
0.538445
0.541553
0.543797
0.54536
0.546415
0.54712
0.547554
0.547769
0.547793
0.547697
0.515467
0.515534
0.515793
0.516486
0.517674
0.519261
0.521244
0.523744
0.52687
0.530711
0.535039
0.538912
0.541794
0.543876
0.545346
0.546393
0.547089
0.547475
0.547571
0.547492
0.508827
0.508875
0.509135
0.509877
0.511197
0.512999
0.515284
0.518201
0.5219
0.526507
0.531775
0.536569
0.540208
0.542903
0.544858
0.546289
0.547292
0.54786
0.548027
0.547962
0.501447
0.501477
0.501742
0.502558
0.504055
0.506135
0.508806
0.512254
0.51667
0.522221
0.52863
0.534531
0.539071
0.542487
0.54502
0.546905
0.548254
0.54902
0.549257
0.549202
0.493134
0.493151
0.493419
0.494332
0.496061
0.498487
0.501655
0.505776
0.511088
0.5178
0.525594
0.532819
0.538426
0.54269
0.545903
0.548338
0.550079
0.551059
0.551367
0.55132
0.48358
0.483567
0.483895
0.484948
0.486963
0.489843
0.493647
0.498616
0.505047
0.513193
0.522664
0.531462
0.538328
0.543593
0.547602
0.550678
0.552869
0.554088
0.554468
0.554426
0.4725
0.472462
0.472835
0.474082
0.476469
0.479936
0.484547
0.490593
0.498427
0.508339
0.519834
0.530498
0.538838
0.545274
0.550218
0.55403
0.556744
0.558217
0.558668
0.558626
0.459413
0.459348
0.459799
0.4613
0.464171
0.468405
0.474062
0.481491
0.491096
0.503188
0.517114
0.529974
0.540023
0.547809
0.553849
0.558505
0.561803
0.563543
0.564058
0.564012
0.443674
0.44358
0.444156
0.446007
0.449529
0.454788
0.461835
0.471069
0.482934
0.497716
0.514546
0.529959
0.541966
0.551286
0.558572
0.564187
0.568121
0.570129
0.570695
0.570639
0.424349
0.424228
0.425005
0.427371
0.431809
0.438491
0.447436
0.459079
0.473855
0.491962
0.512226
0.530552
0.544758
0.555791
0.564445
0.57113
0.575732
0.577986
0.578581
0.578507
0.400026
0.399888
0.400997
0.404162
0.409985
0.418751
0.430387
0.445305
0.463836
0.486008
0.510269
0.531864
0.548479
0.561387
0.571509
0.57935
0.584597
0.587041
0.587631
0.587531
0.36841
0.368293
0.370012
0.374556
0.382676
0.394683
0.410263
0.429677
0.453017
0.480077
0.508891
0.534052
0.553225
0.568108
0.579791
0.58879
0.594578
0.597112
0.597652
0.597519
0.325357
0.325401
0.328459
0.335879
0.348254
0.365547
0.386965
0.412434
0.441763
0.474527
0.50837
0.537293
0.559095
0.575985
0.589217
0.599295
0.605417
0.60788
0.608318
0.60815
0.263126
0.264321
0.271796
0.28563
0.305774
0.331471
0.361108
0.394291
0.430712
0.469838
0.508994
0.541742
0.56614
0.584961
0.599621
0.610509
0.616692
0.618845
0.619115
0.618924
0.189308
0.191054
0.20536
0.229111
0.260151
0.295777
0.334384
0.37579
0.419807
0.465948
0.511273
0.548759
0.576529
0.597809
0.61423
0.625951
0.632054
0.633976
0.634209
0.634113
0.113126
0.11928
0.140408
0.174366
0.215785
0.261044
0.308586
0.358278
0.409997
0.463286
0.51496
0.557342
0.588585
0.61247
0.630801
0.643168
0.64881
0.650282
0.650447
0.650418
0.050808
0.0592582
0.0849458
0.1259
0.175449
0.228934
0.284536
0.341977
0.401035
0.461195
0.518965
0.565974
0.600443
0.626615
0.64629
0.65906
0.664637
0.665939
0.666146
0.666173
0.000118911
0.00916472
0.0383925
0.0845737
0.140261
0.200374
0.262793
0.327083
0.392854
0.459466
0.523017
0.574416
0.611896
0.640192
0.661305
0.6746
0.680083
0.681657
0.681948
0.68202
-0.0423173
-0.032989
-0.0013147
0.0488591
0.109588
0.175205
0.24341
0.313697
0.385507
0.458062
0.527046
0.582616
0.62298
0.653351
0.675836
0.689875
0.695812
0.697649
0.697964
0.698048
-0.0788569
-0.0694159
-0.0359006
0.0174742
0.0823721
0.152685
0.225932
0.301524
0.3788
0.456852
0.530955
0.5905
0.63364
0.666012
0.689859
0.704834
0.711293
0.713292
0.713648
0.713728
-0.111165
-0.101686
-0.066757
-0.0106786
0.0577105
0.13207
0.209777
0.29015
0.372445
0.455623
0.534571
0.597909
0.643697
0.677959
0.703123
0.718913
0.725954
0.728133
0.728508
0.728566
-0.140521
-0.130998
-0.0949087
-0.0364954
0.0348869
0.112791
0.194468
0.279178
0.366099
0.4541
0.537677
0.604657
0.652973
0.688995
0.715375
0.731898
0.739479
0.741815
0.742205
0.742245
-0.167794
-0.158222
-0.121108
-0.0606909
0.0133619
0.0944032
0.179626
0.26828
0.359496
0.452067
0.540115
0.610634
0.661367
0.699045
0.726471
0.743607
0.7516
0.75407
0.754471
0.754489
-0.193549
-0.183915
-0.145839
-0.0837297
-0.00726962
0.0765663
0.164984
0.257238
0.352448
0.449364
0.541766
0.615789
0.668892
0.708137
0.736492
0.7541
0.7623
0.764888
0.765288
0.765279
-0.218286
-0.208492
-0.169565
-0.105875
-0.0272781
0.0590499
0.150353
0.245895
0.344821
0.445874
0.542553
0.620104
0.675594
0.716352
0.745562
0.763502
0.771775
0.774352
0.774752
0.774722
-0.242251
-0.232235
-0.192561
-0.127336
-0.0468445
0.0417062
0.135611
0.234152
0.336523
0.44152
0.542422
0.623572
0.681536
0.72383
0.753771
0.771906
0.780166
0.782701
0.783072
0.783013
-0.26555
-0.255326
-0.214862
-0.148265
-0.0660859
0.0244623
0.120695
0.221958
0.327508
0.436238
0.541314
0.62619
0.686787
0.730708
0.76135
0.779566
0.787695
0.790129
0.79045
0.790368
-0.288349
-0.277825
-0.236609
-0.168738
-0.0850481
0.00727682
0.105589
0.209304
0.317765
0.430006
0.539177
0.627934
0.691414
0.737138
0.768473
0.786625
0.794511
0.796766
0.797008
0.796899
-0.310609
-0.299811
-0.257864
-0.188795
-0.103741
-0.00984091
0.0903192
0.196219
0.307311
0.422809
0.535965
0.628756
0.695449
0.743244
0.77532
0.793245
0.800677
0.802655
0.802787
0.802649
-0.33239
-0.321287
-0.278563
-0.208423
-0.122148
-0.0268622
0.0749226
0.182758
0.296196
0.414666
0.531636
0.628586
0.698866
0.749135
0.782125
0.799644
0.806322
0.807849
0.807849
0.807693
-0.353522
-0.342185
-0.2987
-0.227584
-0.140225
-0.0437189
0.0594625
0.168987
0.284488
0.405629
0.526167
0.627339
0.701587
0.754858
0.789159
0.806222
0.811756
0.812488
0.812261
0.812101
-0.374147
-0.362465
-0.318266
-0.246261
-0.157944
-0.0603742
0.0440281
0.154986
0.272272
0.395774
0.519564
0.624911
0.703463
0.760344
0.796633
0.813569
0.817643
0.816913
0.816102
0.815937
-0.3941
-0.382105
-0.337232
-0.264409
-0.175227
-0.0767455
0.0286989
0.140873
0.259655
0.385163
0.511865
0.621195
0.704293
0.765362
0.804498
0.822321
0.825306
0.822347
0.819872
0.818943
-0.413445
-0.401147
-0.355544
-0.281979
-0.192039
-0.0927646
0.0135573
0.126726
0.246748
0.373932
0.503137
0.616087
0.703841
0.769515
0.812231
0.832553
0.836343
0.831851
0.825366
0.816993
-0.432097
-0.41955
-0.373295
-0.299125
-0.208587
-0.1087
-0.00172496
0.112154
0.233113
0.36159
0.492859
0.609043
0.701625
0.772451
0.819169
0.843554
0.8509
0.846699
0.836305
0.831012
-0.45001
-0.437237
-0.390472
-0.31582
-0.224876
-0.124547
-0.0171354
0.0971383
0.218701
0.348016
0.480831
0.59967
0.696853
0.773368
0.823315
0.851029
0.860734
0.860434
0.822587
0.770756
-0.466893