/*--------------------------------*- C++ -*----------------------------------*\
  =========                 |
  \\      /  F ield         | OpenFOAM: The Open Source CFD Toolbox
   \\    /   O peration     | Website:  https://openfoam.org
    \\  /    A nd           | Version:  9
     \\/     M anipulation  |
\*---------------------------------------------------------------------------*/
FoamFile
{
    format      ascii;
    class       volScalarField;
    location    "72";
    object      p;
}
// * * * * * * * * * * * * * * * * * * * * * * * * * * * * * * * * * * * * * //

dimensions      [0 2 -2 0 0 0 0];

internalField   nonuniform List<scalar> 
8800
(
0.807897
0.760111
0.721426
0.692435
0.671579
0.65676
0.64618
0.638725
0.63394
0.63193
0.633249
0.637482
0.644159
0.653499
0.666296
0.684041
0.708826
0.742771
0.785326
0.844028
0.639138
0.646817
0.654298
0.65761
0.656113
0.651044
0.644572
0.638516
0.633823
0.631022
0.630796
0.633352
0.63788
0.643854
0.650643
0.656937
0.660587
0.659855
0.654443
0.645758
0.617529
0.623691
0.627821
0.630772
0.63283
0.633447
0.632359
0.630282
0.628305
0.627449
0.628469
0.630899
0.633734
0.635941
0.636567
0.635381
0.63305
0.629664
0.625109
0.621348
0.611699
0.614351
0.617108
0.619518
0.621163
0.622338
0.623101
0.623248
0.622996
0.623004
0.62382
0.625043
0.625923
0.626018
0.62543
0.624355
0.622551
0.619989
0.617591
0.616087
0.606292
0.607718
0.609502
0.611542
0.613337
0.614695
0.615707
0.616539
0.617203
0.617833
0.618557
0.619114
0.61926
0.619007
0.618336
0.617106
0.615425
0.613587
0.612285
0.611453
0.601181
0.602102
0.603349
0.604924
0.60657
0.608114
0.609426
0.610532
0.611553
0.612524
0.613297
0.613696
0.613709
0.613311
0.612461
0.611284
0.609975
0.608728
0.607911
0.607359
0.596231
0.596901
0.597869
0.599182
0.600606
0.602086
0.603556
0.604924
0.606188
0.607385
0.608306
0.608758
0.608739
0.60828
0.607511
0.606592
0.605603
0.604695
0.604116
0.603709
0.591394
0.59191
0.5927
0.593843
0.595137
0.596536
0.598018
0.599542
0.601045
0.602486
0.603609
0.604181
0.604234
0.60391
0.603354
0.602664
0.601919
0.601253
0.600826
0.600508
0.586597
0.587008
0.58767
0.58869
0.589915
0.591271
0.592757
0.594373
0.596082
0.597801
0.599184
0.599962
0.600222
0.600127
0.5998
0.599328
0.598792
0.598323
0.598007
0.597748
0.581752
0.582086
0.58266
0.583603
0.584783
0.586128
0.587655
0.589377
0.591285
0.593308
0.595029
0.596118
0.596669
0.596839
0.596752
0.596512
0.596177
0.59587
0.59564
0.595421
0.576769
0.577046
0.577559
0.578457
0.579623
0.580997
0.582604
0.584476
0.586626
0.589002
0.591146
0.592636
0.593536
0.594009
0.594187
0.594183
0.594049
0.593886
0.593724
0.593534
0.571556
0.571788
0.572263
0.573148
0.574338
0.575785
0.577517
0.579593
0.58205
0.584866
0.587527
0.589498
0.590807
0.591631
0.592106
0.592342
0.592416
0.592388
0.592282
0.592113
0.566019
0.566216
0.566672
0.567573
0.56883
0.570395
0.572305
0.574654
0.577503
0.580866
0.584154
0.586697
0.588487
0.589712
0.590521
0.591025
0.591319
0.591418
0.591359
0.591203
0.560053
0.560222
0.560676
0.561621
0.562987
0.564721
0.566878
0.569579
0.572923
0.576962
0.581009
0.584236
0.586594
0.588282
0.589474
0.590297
0.590813
0.591036
0.591019
0.59087
0.553536
0.553681
0.554148
0.555168
0.556689
0.558651
0.561131
0.564282
0.568247
0.573112
0.578077
0.582121
0.585153
0.587388
0.58902
0.590193
0.590964
0.591316
0.591336
0.59119
0.546325
0.546446
0.546941
0.548066
0.549793
0.552053
0.554947
0.558667
0.563402
0.569276
0.575348
0.580366
0.584194
0.587076
0.589226
0.590802
0.591861
0.592347
0.592401
0.592254
0.538229
0.538338
0.538873
0.540135
0.542125
0.544764
0.548185
0.552619
0.558304
0.56541
0.572811
0.578989
0.583756
0.587397
0.590171
0.592222
0.593602
0.594226
0.594312
0.59416
0.529019
0.529117
0.529712
0.531139
0.533464
0.536592
0.54068
0.546006
0.552865
0.561469
0.570465
0.578015
0.583893
0.588425
0.591936
0.594542
0.596284
0.597057
0.59717
0.597009
0.518371
0.51845
0.519133
0.520787
0.52355
0.527305
0.532231
0.538675
0.546988
0.557412
0.568312
0.577479
0.584659
0.590243
0.594593
0.59786
0.600008
0.600932
0.601068
0.600895
0.505902
0.505967
0.506751
0.508716
0.512038
0.516596
0.522593
0.530452
0.540569
0.553206
0.566365
0.577422
0.586106
0.592915
0.598247
0.602269
0.604855
0.605929
0.60608
0.60589
0.491042
0.491096
0.492024
0.494406
0.498469
0.50408
0.511472
0.52114
0.533513
0.548832
0.56465
0.577892
0.588294
0.596499
0.602967
0.607831
0.610876
0.612085
0.61224
0.612031
0.473004
0.473046
0.474189
0.47716
0.482237
0.489274
0.498523
0.510542
0.525747
0.544303
0.563217
0.578941
0.591284
0.601059
0.608768
0.61457
0.618067
0.619378
0.61952
0.619291
0.450603
0.450644
0.452138
0.455997
0.462537
0.47158
0.483375
0.498494
0.51726
0.539691
0.562155
0.580641
0.595118
0.606621
0.615678
0.622448
0.626341
0.627699
0.627808
0.627559
0.422057
0.422119
0.424211
0.429503
0.438327
0.450316
0.465702
0.48494
0.508152
0.535151
0.5616
0.583079
0.59983
0.613162
0.62366
0.631344
0.635512
0.636832
0.636886
0.636621
0.384268
0.384436
0.387759
0.395699
0.408374
0.424883
0.44539
0.470037
0.498685
0.530936
0.56173
0.586356
0.60546
0.620651
0.632598
0.64103
0.645272
0.646448
0.646428
0.646153
0.331308
0.332321
0.338938
0.352337
0.371713
0.39522
0.422796
0.454279
0.489327
0.527396
0.562748
0.590558
0.612007
0.629017
0.642268
0.651161
0.655207
0.656136
0.656039
0.655766
0.254086
0.261552
0.276879
0.300519
0.329877
0.362755
0.398968
0.438311
0.480436
0.524777
0.56497
0.596146
0.620095
0.639032
0.653466
0.66256
0.666237
0.66691
0.666764
0.666528
0.171128
0.188768
0.213597
0.248095
0.287838
0.330209
0.375092
0.422442
0.471976
0.523176
0.568984
0.604176
0.631036
0.652154
0.667807
0.676579
0.679469
0.679849
0.679726
0.679564
0.101938
0.122727
0.155392
0.199108
0.247999
0.299306
0.352591
0.407781
0.464559
0.52238
0.573477
0.612328
0.641705
0.664485
0.680499
0.688557
0.690915
0.691235
0.691169
0.691042
0.0452647
0.0677306
0.105986
0.156216
0.212329
0.271151
0.331866
0.394248
0.457824
0.52193
0.578002
0.620249
0.65186
0.675894
0.692119
0.699803
0.701914
0.70222
0.702193
0.702096
-0.0018812
0.0217735
0.0638605
0.119252
0.181169
0.246197
0.313287
0.382059
0.451862
0.521858
0.582659
0.628107
0.661823
0.687124
0.703756
0.711192
0.71319
0.713523
0.713532
0.713459
-0.0417739
-0.0174705
0.0275149
0.0869859
0.153784
0.224095
0.296732
0.371201
0.446701
0.522214
0.58754
0.636111
0.671936
0.698516
0.715594
0.723186
0.725204
0.725488
0.725525
0.725468
-0.0764679
-0.051756
-0.00449737
0.0583464
0.129275
0.204191
0.281758
0.361382
0.442146
0.522873
0.592566
0.644214
0.682142
0.710043
0.727816
0.735726
0.737784
0.738082
0.738113
0.738073
-0.107484
-0.0824258
-0.0333179
0.0324028
0.106904
0.185866
0.267866
0.352215
0.437903
0.52361
0.597548
0.652229
0.692278
0.721572
0.740148
0.748402
0.750601
0.750888
0.750913
0.750889
-0.13582
-0.11046
-0.0597764
0.00843508
0.0860769
0.168637
0.254642
0.343346
0.433671
0.524164
0.602266
0.659965
0.702128
0.732809
0.752151
0.760802
0.763162
0.763464
0.763473
0.763459
-0.162303
-0.136601
-0.0845172
-0.0141141
0.0663391
0.152123
0.241763
0.33449
0.429191
0.524321
0.606543
0.667237
0.711459
0.743505
0.763593
0.77261
0.775127
0.775445
0.775421
0.775403
-0.187331
-0.161288
-0.107883
-0.0356241
0.0473547
0.136038
0.228982
0.325436
0.424282
0.523921
0.610242
0.673931
0.720194
0.753505
0.774232
0.783552
0.786172
0.786482
0.786429
0.7864
-0.211374
-0.18491
-0.130479
-0.0563395
0.0288822
0.120175
0.216134
0.316034
0.418792
0.522815
0.613254
0.67999
0.728271
0.762765
0.783985
0.793479
0.796144
0.796433
0.796345
0.7963
-0.234574
-0.207648
-0.152276
-0.0764539
0.0107678
0.104408
0.203104
0.306179
0.412615
0.520907
0.615512
0.685399
0.735729
0.771286
0.792835
0.802376
0.804997
0.805257
0.805139
0.805077
-0.257089
-0.229767
-0.173363
-0.0960883
-0.00707072
0.0886704
0.189827
0.295805
0.405689
0.518113
0.616941
0.690151
0.742638
0.779212
0.80092
0.810293
0.812812
0.813024
0.812883
0.812805
-0.279056
-0.251254
-0.193881
-0.115301
-0.024685
0.072929
0.176293
0.284903
0.397975
0.514362
0.61747
0.694245
0.749122
0.786721
0.808377
0.81739
0.819687
0.819819
0.819661
0.819571
-0.300549
-0.272163
-0.21391
-0.13411
-0.042069
0.0571889
0.162517
0.273483
0.389469
0.509603
0.617027
0.697665
0.75528
0.794037
0.815471
0.823831
0.825736
0.825753
0.825573
0.825481
-0.321433
-0.292491
-0.23339
-0.152508
-0.0592116
0.0414942
0.148536
0.261593
0.3802
0.50383
0.615525
0.70035
0.761169
0.801419
0.82255
0.829879
0.831088
0.830908
0.830726
0.830643
-0.341692
-0.312218
-0.252322
-0.170462
-0.0760738
0.025886
0.134422
0.249292
0.370225
0.49704
0.612892
0.702185
0.766773
0.809089
0.830121
0.83609
0.836054
0.835405
0.83525
0.835231
-0.361402
-0.331322
-0.2707
-0.187956
-0.0926056
0.0104342
0.120248
0.236667
0.359614
0.489275
0.609054
0.703008
0.77196
0.817116
0.838743
0.843467
0.841484
0.839656
0.839407
0.839751
-0.38041
-0.349792
-0.288475
-0.204943
-0.108758
-0.00478794
0.106099
0.223815
0.348468
0.480607
0.603968
0.702613
0.776469
0.825276
0.848665
0.853272
0.849527
0.845362
0.843745
0.843918
-0.39881
-0.367627
-0.305672
-0.22146
-0.124567
-0.0198245
0.0919177
0.210684
0.336724
0.470966
0.597498
0.700723
0.780023
0.833164
0.859546
0.866081
0.862552
0.855171
0.847856
0.834674
-0.416538
-0.384816
-0.322406
-0.237707
-0.140311
-0.0349939
0.0773079
0.196816
0.32388
0.459763
0.589058
0.696643
0.782192
0.840293
0.870078
0.880423
0.877459
0.863442
0.842226
0.83248
-0.43343
-0.401521
-0.338495
-0.253495
-0.155634
-0.04996
0.0624846
0.18252
0.310218
0.447216
0.578635
0.689786
0.781966
0.845393
0.876244
0.886757
0.88503
0.859076
0.792123
0.76239
-0.448835
-0.419026
-0.353643
-0.26835
-0.169732
-0.0642203
0.0477675
0.168024
0.295949
0.433433
0.566116
0.679739
0.777674
0.847578
0.872493
0.877962
0.861526
0.804332
0.734867
0.692431
-0.503253
-0.434438
-0.367311
-0.283409
-0.184291
-0.079283
0.0330805
0.15303
0.280682
0.417916
0.550822
0.665688
0.765156
0.842216
0.841739
0.839056
0.782548
0.708375
0.630405
0.587036
-0.464876
-0.448948
-0.387687
-0.302674
-0.205833
-0.100848
0.0104939
0.129854
0.256632
0.392691
0.524089
0.637973
0.730867
0.813986
0.79435
0.673247
0.563377
0.486989
0.411869
0.440117
-0.49491
-0.465937
-0.403818
-0.319657
-0.222868
-0.117999
-0.00636112
0.112389
0.238148
0.372505
0.501274
0.611016
0.69401
0.73788
0.684426
0.52836
0.396086
0.301707
0.201492
0.249357
-0.518009
-0.486125
-0.422922
-0.338644
-0.24174
-0.136983
-0.0254202
0.0925058
0.216888
0.348885
0.473981
0.577414
0.651179
0.65996
0.54753
0.369826
0.213448
0.0918538
-0.0408369
-0.00919464
-0.540534
-0.507191
-0.442889
-0.357723
-0.260755
-0.156163
-0.0451378
0.0718209
0.19461
0.323826
0.444213
0.539429
0.597306
0.574276
0.409942
0.209658
0.0166418
-0.153201
-0.342681
-0.362836
-0.56245
-0.528708
-0.463574
-0.37767
-0.280594
-0.176248
-0.0658978
0.0499542
0.170868
0.296859
0.411736
0.498498
0.536375
0.475778
0.27874
0.064831
-0.154494
-0.345035
-0.587438
-0.882693
-0.584648
-0.550931
-0.485312
-0.39897
-0.301746
-0.197605
-0.0878686
0.0268248
0.145728
0.268178
0.377116
0.455296
0.470894
0.358401
0.164338
-0.0487198
-0.255086
-0.428668
-0.499306
-0.577326
-0.608066
-0.574323
-0.508449
-0.421935
-0.324703
-0.220868
-0.111849
0.00149751
0.118047
0.236377
0.338913
0.405704
0.395617
0.249216
0.0623855
-0.131619
-0.296796
-0.391154
-0.415558
-0.431339
-0.63301
-0.599175
-0.533154
-0.446636
-0.349592
-0.246245
-0.138194
-0.0265144
0.0872391
0.200757
0.296406
0.348338
0.320184
0.147596
-0.0301901
-0.199019
-0.32773
-0.36753
-0.380325
-0.381628
-0.659678
-0.625658
-0.55949
-0.473069
-0.376361
-0.273741
-0.166926
-0.057262
0.0532362
0.161337
0.249103
0.286274
0.237124
0.0536833
-0.115006
-0.266229
-0.343809
-0.360888
-0.362294
-0.362117
-0.688126
-0.653832
-0.587488
-0.501235
-0.405031
-0.303347
-0.198048
-0.0907609
0.0160503
0.118195
0.197146
0.222094
0.136119
-0.0321559
-0.192303
-0.316964
-0.354255
-0.352585
-0.35169
-0.351113
-0.718073
-0.683532
-0.617045
-0.531052
-0.435517
-0.335011
-0.231533
-0.126984
-0.0242777
0.0714447
0.141439
0.148937
0.0444577
-0.111656
-0.253522
-0.331231
-0.341601
-0.344243
-0.34492
-0.344656
-0.748972
-0.714292
-0.64791
-0.562296
-0.467637
-0.368579
-0.26723
-0.1658
-0.067558
0.0214572
0.0824991
0.0747228
-0.0377172
-0.179053
-0.298422
-0.330381
-0.339125
-0.340608
-0.340368
-0.340072
-0.780363
-0.745585
-0.679624
-0.594579
-0.501052
-0.403737
-0.304863
-0.206918
-0.113498
-0.0310509
0.0194409
0.00440739
-0.112796
-0.234159
-0.329308
-0.347241
-0.338212
-0.337064
-0.336971
-0.33673
-0.811349
-0.776709
-0.711353
-0.627301
-0.535226
-0.440018
-0.343986
-0.249863
-0.161617
-0.0854229
-0.044887
-0.0595639
-0.178062
-0.276189
-0.332685
-0.341103
-0.33761
-0.33599
-0.335288
-0.335011
-0.840412
-0.806492
-0.742124
-0.659552
-0.569406
-0.476731
-0.383955
-0.293953
-0.211105
-0.141058
-0.104133
-0.129369
-0.229117
-0.31401
-0.320408
-0.335928
-0.337912
-0.335453
-0.334538
-0.334017
-0.865939
-0.833078
-0.770827
-0.690183
-0.60257
-0.512955
-0.423914
-0.338348
-0.26084
-0.197065
-0.160115
-0.19594
-0.270123
-0.329497
-0.353558
-0.34418
-0.340702
-0.339417
-0.338653
-0.338063
-0.885823
-0.854696
-0.795311
-0.717801
-0.633445
-0.547576
-0.462794
-0.382031
-0.309713
-0.25213
-0.217294
-0.249209
-0.298665
-0.347206
-0.380966
-0.357191
-0.347497
-0.346487
-0.345682
-0.345209
-0.897863
-0.869437
-0.813861
-0.74049
-0.660561
-0.57929
-0.49942
-0.42381
-0.356689
-0.304652
-0.272115
-0.293483
-0.311016
-0.333515
-0.331578
-0.340015
-0.345714
-0.347468
-0.347999
-0.348436
-0.899474
-0.875072
-0.824458
-0.756505
-0.68224
-0.606695
-0.53248
-0.462451
-0.400628
-0.353401
-0.31783
-0.33405
-0.331489
-0.323929
-0.332814
-0.345288
-0.349395
-0.350656
-0.351407
-0.351624
-0.888408
-0.868781
-0.82495
-0.764278
-0.697042
-0.628342
-0.560656
-0.496665
-0.440301
-0.39726
-0.357378
-0.370867
-0.386738
-0.410018
-0.399547
-0.378247
-0.367497
-0.363637
-0.361948
-0.361301
-0.862819
-0.848113
-0.813574
-0.762573
-0.703981
-0.643255
-0.582787
-0.52513
-0.474272
-0.435377
-0.39102
-0.389227
-0.396435
-0.447268
-0.418157
-0.380734
-0.36495
-0.360419
-0.358495
-0.357621
-0.825287
-0.81582
-0.79119
-0.751549
-0.703058
-0.651175
-0.598228
-0.546791
-0.500892
-0.465929
-0.43339
-0.389224
-0.32321
-0.289716
-0.293867
-0.313839
-0.329731
-0.337282
-0.339655
-0.339852
-0.782493
-0.777104
-0.762624
-0.734033
-0.696215
-0.652901
-0.607144
-0.56119
-0.518969
-0.485569
-0.455135
-0.39526
-0.300231
-0.225139
-0.254731
-0.311055
-0.336691
-0.351146
-0.359201
-0.361795
-0.744143
-0.740865
-0.733994
-0.71541
-0.686352
-0.650332
-0.610596
-0.56887
-0.527931
-0.494281
-0.469275
-0.437188
-0.425576
-0.400415
-0.360985
-0.382075
-0.437717
-0.471645
-0.480076
-0.48788
-0.716704
-0.714666
-0.711164
-0.699903
-0.677283
-0.646498
-0.610631
-0.570784
-0.529324
-0.49106
-0.466101
-0.475467
-0.607969
-0.8456
-1.14339
-1.28803
-1.29249
-1.21183
-1.05746
-1.00498
-0.696005
-0.695262
-0.694114
-0.688532
-0.671594
-0.644032
-0.609134
-0.569005
-0.524245
-0.475607
-0.439777
-0.42008
-0.508683
-0.677061
-0.898199
-0.976604
-0.913258
-0.816135
-0.692363
-0.643349
-0.683912
-0.683625
-0.68299
-0.680422
-0.668699
-0.642996
-0.607253
-0.565004
-0.515062
-0.458569
-0.410182
-0.366043
-0.304737
-0.191093
-0.0768126
0.0417665
0.147831
0.225392
0.289642
0.319172
-0.675883
-0.675705
-0.675164
-0.674307
-0.667357
-0.643626
-0.606632
-0.560323
-0.50564
-0.440346
-0.367877
-0.294801
-0.124731
0.188969
0.517731
0.844558
1.05906
1.15708
1.19498
1.20051
-0.670823
-0.670853
-0.670883
-0.671368
-0.666916
-0.646128
-0.607489
-0.557058
-0.496526
-0.420649
-0.33084
-0.237882
-0.014807
0.345852
0.725668
1.0769
1.31424
1.411
1.43046
1.42922
-0.666189
-0.666243
-0.666231
-0.665998
-0.664923
-0.649342
-0.610571
-0.556204
-0.489601
-0.408348
-0.308468
-0.207733
-0.00835252
0.306895
0.619195
0.895452
1.08157
1.16778
1.20517
1.21751
-0.66292
-0.66302
-0.662953
-0.662022
-0.661245
-0.653185
-0.615382
-0.558172
-0.488472
-0.403111
-0.303096
-0.204309
-0.0426072
0.237708
0.497828
0.712309
0.862939
0.948026
0.99558
1.01388
-0.661702
-0.662793
-0.665895
-0.672107
-0.67808
-0.665025
-0.622071
-0.563976
-0.494767
-0.407874
-0.311996
-0.217699
-0.0922535
0.143711
0.376864
0.571579
0.726252
0.821786
0.868281
0.882298
-0.663809
-0.665324
-0.668328
-0.673728
-0.680391
-0.663567
-0.624279
-0.574908
-0.507425
-0.419628
-0.330066
-0.244896
-0.146309
0.0563107
0.258377
0.426712
0.564473
0.651145
0.690017
0.699618
-0.693345
-0.693564
-0.685058
-0.648562
-0.599665
-0.592749
-0.612663
-0.591638
-0.525301
-0.436433
-0.349494
-0.269619
-0.191639
-0.0389077
0.131273
0.270168
0.381811
0.449743
0.478627
0.48407
-0.74536
-0.74285
-0.730052
-0.688668
-0.639887
-0.630373
-0.658787
-0.629467
-0.550699
-0.454728
-0.367741
-0.296543
-0.234908
-0.11683
0.0177706
0.125782
0.210973
0.26033
0.279848
0.28253
-0.845023
-0.852555
-0.889546
-0.938048
-0.949704
-0.916589
-0.846122
-0.712168
-0.58483
-0.471473
-0.383201
-0.317349
-0.265512
-0.178282
-0.0760051
0.00669786
0.0695268
0.104023
0.117976
0.118457
-1.00789
-1.0357
-1.09782
-1.15548
-1.17321
-1.12931
-0.994916
-0.785173
-0.611688
-0.479971
-0.389258
-0.331256
-0.287129
-0.22283
-0.148504
-0.0876065
-0.0437797
-0.0194974
-0.0114691
-0.0117664
-1.06292
-1.08831
-1.13179
-1.17321
-1.18593
-1.14131
-0.991134
-0.776123
-0.598651
-0.467452
-0.383728
-0.333667
-0.300355
-0.254473
-0.203004
-0.161404
-0.13237
-0.117939
-0.113243
-0.114517
-0.915409
-0.936476
-0.973909
-1.01243
-1.02754
-0.984087
-0.839233
-0.67317
-0.532201
-0.427457
-0.359442
-0.319416
-0.294097
-0.264149
-0.235002
-0.214224
-0.202931
-0.199104
-0.198312
-0.199123
-0.593869
-0.611169
-0.644717
-0.683969
-0.70744
-0.686509
-0.608001
-0.514495
-0.431734
-0.366865
-0.321654
-0.292568
-0.273245
-0.258041
-0.248992
-0.246985
-0.249429
-0.25318
-0.254437
-0.254717
-0.238694
-0.248865
-0.271121
-0.304524
-0.339821
-0.359908
-0.360067
-0.345635
-0.324009
-0.298424
-0.276915
-0.259012
-0.245029
-0.242749
-0.247073
-0.255204
-0.26473
-0.271179
-0.272671
-0.27275
0.0103157
0.00513915
-0.0103123
-0.0399286
-0.0835536
-0.133153
-0.176594
-0.208169
-0.226579
-0.233465
-0.234288
-0.231381
-0.227584
-0.230819
-0.237149
-0.246177
-0.254582
-0.258444
-0.259023
-0.259216
0.124702
0.12136
0.109779
0.084215
0.041684
-0.0133765
-0.0692774
-0.117516
-0.154069
-0.180323
-0.198799
-0.214184
-0.223914
-0.223169
-0.223929
-0.225035
-0.227478
-0.22783
-0.22783
-0.228308
0.150516
0.148162
0.139486
0.119522
0.0852328
0.0392942
-0.0115515
-0.0610392
-0.103638
-0.138699
-0.168934
-0.199945
-0.219741
-0.212227
-0.202739
-0.197416
-0.194301
-0.192753
-0.192821
-0.193552
0.137171
0.135575
0.129484
0.1152
0.090243
0.0556406
0.0147395
-0.0275137
-0.0673735
-0.103745
-0.136752
-0.170023
-0.188414
-0.180807
-0.171605
-0.166595
-0.163247
-0.162176
-0.162579
-0.163384
0.111814
0.110858
0.106848
0.0971885
0.0799099
0.0551863
0.0243603
-0.00922026
-0.042523
-0.0733969
-0.100544
-0.123092
-0.13267
-0.132711
-0.133666
-0.13593
-0.137657
-0.13922
-0.140144
-0.140781
0.0852685
0.0847972
0.0823478
0.0761365
0.0646293
0.0475875
0.025533
0.000765461
-0.0245715
-0.0472154
-0.0629434
-0.0727632
-0.0752181
-0.0831705
-0.0952086
-0.10658
-0.114701
-0.119464
-0.121047
-0.121384
0.0611083
0.0608862
0.0595185
0.0557276
0.048411
0.0372227
0.0222806
0.00524104
-0.0122479
-0.0267337
-0.0327826
-0.0269275
-0.0215362
-0.0402864
-0.0608005
-0.0776266
-0.0894783
-0.0960991
-0.0981145
-0.0982266
0.0398701
0.0398045
0.0391567
0.0370678
0.0327645
0.0259376
0.0166105
0.00591791
-0.00484382
-0.0125135
-0.01131
-0.00135484
0.00435808
-0.0134896
-0.0339318
-0.0496375
-0.0604995
-0.0664657
-0.0683694
-0.0684095
0.0209764
0.0210534
0.0208396
0.0198894
0.017855
0.0144554
0.00967072
0.0042332
-0.00117031
-0.00419045
-0.000957701
0.00815312
0.011599
-0.000792266
-0.014591
-0.0245012
-0.0303418
-0.0335453
-0.0347872
-0.0349241
0.00360794
0.00368799
0.00369678
0.00391117
0.00392166
0.00351859
0.00272387
0.00167971
0.00038206
-0.000417884
-0.000381992
0.00226052
0.00478876
0.00159972
-0.00121831
-0.00261481
-0.00453417
-0.00598241
-0.00616577
-0.00597076
-0.118512
0.0466663
0.239029
0.406842
0.540232
0.644406
0.730044
0.803038
0.836585
0.813397
0.179071
0.298338
0.426464
0.53688
0.629568
0.705937
0.76771
0.811637
0.833628
0.845871
0.394438
0.476091
0.563613
0.640686
0.70682
0.762109
0.806107
0.838312
0.861704
0.879799
0.552979
0.611507
0.671991
0.728306
0.777151
0.818661
0.852808
0.88011
0.902705
0.921073
0.676828
0.719328
0.76474
0.807962
0.846187
0.879599
0.908241
0.932127
0.952389
0.970265
0.780157
0.812674
0.850416
0.8856
0.917931
0.946946
0.972327
0.993691
1.01146
1.02883
0.87209
0.900577
0.934301
0.966225
0.995994
1.02302
1.04666
1.0663
1.08175
1.09884
0.960309
0.989384
1.02325
1.05516
1.08466
1.11115
1.13395
1.15239
1.16572
1.18276
1.0554
1.08853
1.12508
1.15859
1.18857
1.2147
1.23661
1.25385
1.26569
1.28309
1.17026
1.20804
1.24663
1.28083
1.31014
1.33485
1.3552
1.37107
1.38251
1.40058
1.31513
1.35364
1.38975
1.42041
1.44606
1.46814
1.48717
1.50269
1.5151
1.5331
1.49015
1.52176
1.54792
1.57035
1.59031
1.60902
1.62672
1.64319
1.65854
1.6766
1.67873
1.69593
1.71096
1.72717
1.74307
1.7576
1.77079
1.78472
1.80225
1.82241
1.86044
1.86997
1.88151
1.89231
1.90159
1.91117
1.92195
1.93331
1.94467
1.96002
2.06766
2.07132
2.05637
2.04157
2.03529
2.04095
2.05943
2.08974
2.12192
2.14857
2.37398
2.23912
2.16247
2.12008
2.10266
2.10662
2.13402
2.19043
2.29305
2.51742
0.698493
0.696366
0.691883
0.683262
0.671044
0.658924
0.648707
0.64083
0.635239
0.63202
0.631709
0.634488
0.639624
0.646869
0.656273
0.667823
0.680481
0.691521
0.697636
0.700692
0.622935
0.628782
0.635118
0.639615
0.642092
0.641776
0.639052
0.635261
0.631779
0.629556
0.629454
0.631695
0.635391
0.639704
0.643528
0.645423
0.644495
0.64102
0.63586
0.62924
0.614491
0.616787
0.620194
0.623195
0.625277
0.626784
0.627554
0.627259
0.626263
0.625421
0.625645
0.627119
0.628971
0.630303
0.630502
0.629626
0.628087
0.625758
0.6225
0.619581
0.608952
0.610038
0.611875
0.614259
0.616291
0.617731
0.618768
0.619544
0.619979
0.620248
0.620794
0.621654
0.622292
0.622389
0.621999
0.621167
0.61971
0.617635
0.615555
0.614174
0.603713
0.604375
0.605486
0.607198
0.60899
0.610636
0.611951
0.612994
0.613916
0.614759
0.615553
0.616165
0.616406
0.616275
0.615734
0.614699
0.613286
0.611754
0.610444
0.609666
0.59869
0.59915
0.59994
0.601245
0.602744
0.604277
0.605765
0.607095
0.608276
0.609393
0.610384
0.611023
0.611224
0.610993
0.610328
0.609363
0.608257
0.607138
0.606232
0.605717
0.593804
0.594148
0.594762
0.595839
0.597146
0.598539
0.600004
0.601486
0.602911
0.604263
0.605462
0.606238
0.606483
0.60626
0.605701
0.604955
0.604128
0.603279
0.602618
0.602241
0.588998
0.589265
0.589761
0.59068
0.591865
0.593183
0.594607
0.596138
0.597739
0.599343
0.600795
0.601766
0.60215
0.602093
0.60175
0.60123
0.600611
0.599995
0.599515
0.599229
0.584188
0.5844
0.584814
0.585623
0.58673
0.588003
0.589423
0.591007
0.592749
0.594602
0.596358
0.597608
0.598246
0.598444
0.598341
0.598049
0.597644
0.597224
0.596887
0.596663
0.579286
0.579456
0.579811
0.580548
0.581612
0.582867
0.58432
0.585996
0.587905
0.590027
0.592146
0.593773
0.594752
0.595251
0.595413
0.595361
0.595177
0.594936
0.594716
0.594538
0.5742
0.574337
0.57465
0.575344
0.576394
0.577678
0.579203
0.581013
0.583145
0.585595
0.588157
0.590252
0.59164
0.59249
0.592955
0.593161
0.593196
0.59313
0.593011
0.592868
0.568837
0.568947
0.569233
0.569909
0.57098
0.572337
0.57398
0.57598
0.578402
0.581267
0.584373
0.587032
0.588903
0.590161
0.590968
0.591458
0.591727
0.591836
0.591806
0.591689
0.5631
0.563187
0.563457
0.564139
0.565267
0.566741
0.568556
0.570814
0.573606
0.576994
0.580766
0.584101
0.586546
0.588277
0.589473
0.590295
0.590825
0.591102
0.591151
0.591056
0.556876
0.556941
0.557205
0.557916
0.559138
0.560776
0.562827
0.565424
0.568688
0.572723
0.577307
0.581455
0.584583
0.586872
0.588518
0.589713
0.590531
0.590993
0.591117
0.591038
0.550031
0.550076
0.55034
0.551102
0.55246
0.554318
0.55668
0.559707
0.563565
0.568399
0.57397
0.579094
0.583032
0.585982
0.588158
0.589776
0.590927
0.591588
0.591786
0.59172
0.542411
0.542432
0.542699
0.543536
0.545073
0.547215
0.549972
0.553547
0.558147
0.563962
0.570728
0.577021
0.581919
0.585646
0.588454
0.590573
0.592104
0.592981
0.593253
0.593196
0.533783
0.533795
0.534078
0.535014
0.536786
0.539275
0.542541
0.546806
0.552327
0.559346
0.567557
0.575243
0.581279
0.585921
0.589471
0.592198
0.594161
0.595273
0.595618
0.595568
0.523869
0.523852
0.524185
0.525266
0.527329
0.53028
0.534191
0.53932
0.545988
0.554483
0.564438
0.573778
0.581155
0.586876
0.591297
0.594729
0.597194
0.598563
0.598981
0.598933
0.512353
0.512311
0.512693
0.513967
0.5164
0.519945
0.524673
0.530896
0.538996
0.549304
0.561355
0.57265
0.581592
0.588575
0.594018
0.598259
0.601301
0.602941
0.603427
0.603376
0.498738
0.498669
0.49913
0.500659
0.503579
0.507894
0.513679
0.521305
0.53121
0.543749
0.558308
0.571894
0.582641
0.591071
0.597707
0.60288
0.606554
0.608472
0.609014
0.608953
0.482352
0.482255
0.482844
0.484729
0.488301
0.493647
0.500833
0.510286
0.522487
0.537773
0.555316
0.571552
0.58436
0.59443
0.602409
0.608636
0.612992
0.615172
0.615749
0.615673
0.462235
0.462111
0.462906
0.46531
0.469803
0.476581
0.485682
0.497569
0.512718
0.531384
0.552441
0.571692
0.586807
0.598703
0.608148
0.615537
0.620586
0.622985
0.623566
0.623466
0.436933
0.436794
0.437929
0.441139
0.447029
0.455905
0.467722
0.48292
0.501872
0.524663
0.549798
0.572413
0.590037
0.603907
0.614943
0.623551
0.629229
0.63176
0.6323
0.632169
0.40408
0.403965
0.405723
0.410335
0.41855
0.430707
0.446509
0.466253
0.49007
0.517813
0.547573
0.573841
0.594113
0.610056
0.622735
0.632547
0.638699
0.641223
0.641673
0.641506
0.359437
0.359494
0.362626
0.370165
0.382698
0.400209
0.421923
0.447795
0.477669
0.511178
0.546023
0.576114
0.599099
0.617124
0.631439
0.642306
0.648645
0.650977
0.651289
0.65109
0.295054
0.296306
0.303973
0.318055
0.3385
0.364537
0.394581
0.428262
0.465299
0.505223
0.545419
0.579366
0.605005
0.625036
0.640797
0.652366
0.65856
0.660461
0.660599
0.660385
0.218784
0.220627
0.235313
0.25952
0.291045
0.327131
0.36624
0.408205
0.452864
0.499774
0.546052
0.584621
0.61353
0.635989
0.653339
0.665473
0.671243
0.67277
0.672856
0.672723
0.140156
0.14651
0.1682
0.202801
0.244837
0.290689
0.338816
0.3891
0.441435
0.495395
0.547852
0.591085
0.623213
0.648008
0.667044
0.679124
0.683964
0.684964
0.684992
0.684927
0.0757926
0.0845301
0.110832
0.152551
0.20282
0.256977
0.313221
0.371281
0.430926
0.491652
0.549975
0.597532
0.63255
0.659231
0.679059
0.690856
0.695259
0.696152
0.69622
0.69621
0.023454
0.0327946
0.0626926
0.109708
0.166183
0.227031
0.290135
0.355056
0.421369
0.488416
0.55229
0.603918
0.64161
0.669997
0.690561
0.702318
0.706456
0.707252
0.707365
0.707408
-0.0202937
-0.0106698
0.0217016
0.072751
0.134321
0.200721
0.269642
0.340562
0.412882
0.48578
0.554899
0.610426
0.650694
0.680793
0.702248
0.714032
0.717966
0.718907
0.719063
0.71915
-0.0578277
-0.0481025
-0.0138876
0.0403856
0.106176
0.177317
0.251317
0.327567
0.405344
0.483678
0.557785
0.617102
0.659929
0.691726
0.714064
0.726169
0.730308
0.731279
0.731445
0.731567
-0.090845
-0.0811022
-0.0454819
0.0115093
0.0808433
0.15608
0.234585
0.315644
0.398447
0.481889
0.560787
0.623806
0.66917
0.702703
0.726098
0.738772
0.743118
0.744157
0.744311
0.744419
-0.120654
-0.110896
-0.0741307
-0.0147945
0.0575808
0.13641
0.218934
0.304376
0.391848
0.48014
0.56367
0.630332
0.678227
0.713534
0.738024
0.751281
0.755911
0.75698
0.757113
0.757194
-0.148172
-0.13839
-0.100649
-0.0392393
0.0358178
0.117839
0.203972
0.29342
0.385245
0.478161
0.566218
0.636491
0.686891
0.723917
0.749461
0.763311
0.768257
0.76936
0.769456
0.769508
-0.173988
-0.164157
-0.125523
-0.0623661
0.0151201
0.100001
0.189394
0.282511
0.378405
0.475753
0.56826
0.642127
0.69501
0.733707
0.760253
0.774604
0.779821
0.780941
0.780995
0.781012
-0.198602
-0.188668
-0.149156
-0.0845004
-0.00481021
0.0826289
0.174976
0.271458
0.371163
0.472756
0.56965
0.647145
0.702509
0.742814
0.770262
0.78499
0.790332
0.791471
0.791494
0.791478
-0.222324
-0.212202
-0.171949
-0.105833
-0.0241796
0.0655435
0.160566
0.260135
0.363385
0.469044
0.570288
0.651481
0.709377
0.751241
0.779435
0.794372
0.799792
0.800876
0.800866
0.800819
-0.24527
-0.234962
-0.194044
-0.126507
-0.0431294
0.0486499
0.146075
0.248452
0.35499
0.46452
0.570085
0.655096
0.715631
0.759048
0.787835
0.802839
0.808144
0.809181
0.809138
0.809065
-0.267645
-0.257081
-0.215445
-0.146646
-0.0617293
0.0318838
0.131457
0.236374
0.34594
0.459133
0.568956
0.657947
0.72133
0.766385
0.795635
0.810478
0.815557
0.816474
0.816394
0.816307
-0.289419
-0.278603
-0.236296
-0.166317
-0.080007
0.0152316
0.116718
0.223908
0.336224
0.452835
0.566834
0.659982
0.726532
0.773413
0.803042
0.817483
0.822142
0.822876
0.822745
0.82264
-0.310651
-0.29957
-0.256553
-0.185519
-0.0979627
-0.00129543
0.101877
0.211086
0.325868
0.44562
0.563657
0.66113
0.731247
0.780302
0.810354
0.824102
0.828036
0.828467
0.828279
0.828174
-0.331229
-0.319937
-0.276214
-0.204223
-0.115567
-0.0176437
0.0869816
0.19796
0.314923
0.437523
0.559375
0.661299
0.735429
0.787184
0.817931
0.830773
0.833525
0.833362
0.833085
0.83301
-0.351279
-0.339675
-0.295285
-0.222423
-0.132804
-0.0337881
0.0721088
0.184594
0.303458
0.428598
0.553971
0.660368
0.738954
0.794078
0.826138
0.838214
0.839302
0.837884
0.8373
0.837327
-0.370653
-0.358762
-0.313749
-0.240091
-0.149604
-0.0496535
0.0573296
0.171099
0.291569
0.418892
0.547461
0.658205
0.741618
0.800827
0.835126
0.847275
0.846741
0.843259
0.841299
0.840862
-0.389421
-0.377256
-0.33156
-0.257184
-0.165941
-0.0651778
0.0427199
0.157544
0.279356
0.408528
0.539889
0.654675
0.743154
0.807071
0.844544
0.858303
0.857717
0.852216
0.846102
0.838591
-0.407508
-0.395115
-0.348816
-0.273858
-0.182019
-0.0806232
0.0279612
0.143554
0.266404
0.397046
0.530778
0.649297
0.743168
0.812633
0.853997
0.871062
0.872913
0.866479
0.855048
0.850854
-0.424869
-0.412263
-0.365503
-0.290089
-0.197853
-0.0959883
0.0130599
0.129104
0.252655
0.38431
0.5199
0.641633
0.740805
0.816709
0.861598
0.881731
0.885448
0.881113
0.842692
0.791244
-0.441235
-0.427918
-0.381475
-0.305811
-0.21355
-0.111443
-0.00204803