/*--------------------------------*- C++ -*----------------------------------*\
  =========                 |
  \\      /  F ield         | OpenFOAM: The Open Source CFD Toolbox
   \\    /   O peration     | Website:  https://openfoam.org
    \\  /    A nd           | Version:  9
     \\/     M anipulation  |
\*---------------------------------------------------------------------------*/
FoamFile
{
    format      ascii;
    class       surfaceScalarField;
    location    "72";
    object      phi;
}
// * * * * * * * * * * * * * * * * * * * * * * * * * * * * * * * * * * * * * //

dimensions      [0 3 -1 0 0 0 0];

internalField   nonuniform List<scalar> 
17370
(
-0.091606
0.0960093
0.284607
-0.0775944
0.0594197
0.36495
-0.0430415
0.0316212
0.427588
-0.0223168
0.0162637
0.505305
-0.0116702
0.00879599
0.602276
-0.00658439
0.0050991
0.720543
-0.00386199
0.00298168
0.863787
-0.0022088
0.0016306
1.03603
-0.00109893
0.000677674
1.24292
-0.000265741
-0.000129845
1.49159
0.000519175
-0.000933511
1.49161
0.00133949
-0.00184439
1.2432
0.00239287
-0.00313217
1.03638
0.00398665
-0.00520412
0.864124
0.00667797
-0.00887966
0.721259
0.0117429
-0.0163202
0.603792
0.0223561
-0.0316415
0.508725
0.0430414
-0.0594075
0.432534
0.0775867
-0.0960024
0.365191
0.0916215
0.197389
-0.127093
0.0880264
0.0390671
-0.364359
0.354034
-0.0714718
0.0817965
-0.446654
0.454259
-0.0791657
0.0715612
-0.521012
0.529114
-0.0637053
0.0556032
-0.612992
0.620764
-0.0482138
0.040442
-0.727166
0.733689
-0.0338278
0.0273044
-0.867583
0.872438
-0.022098
0.0172431
-1.03857
1.04191
-0.0135424
0.0102006
-1.24472
1.24713
-0.00764733
0.00523833
-1.49284
1.49486
-0.00327109
0.00125353
-1.49269
1.49452
0.000568521
-0.00239068
-1.2441
1.24602
0.004367
-0.00628084
-1.03761
1.04008
0.00861619
-0.0110914
-0.866186
0.869808
0.0143426
-0.0179651
-0.724591
0.729743
0.0227473
-0.0278989
-0.609062
0.615629
0.0343698
-0.040937
-0.515121
0.522454
0.0486543
-0.0559871
-0.43988
0.447653
0.0640048
-0.0717782
-0.374703
0.377355
0.0792653
-0.0819166
-0.256893
0.224429
0.0715659
-0.0391017
-0.068817
0.0592082
0.00960884
-0.0520909
0.0589121
-0.374843
0.368022
-0.0580603
0.0542149
-0.453952
0.457797
-0.048725
0.0441625
-0.527624
0.532187
-0.0396086
0.0357084
-0.620809
0.624709
-0.0314901
0.0274897
-0.734668
0.738669
-0.0231269
0.0192342
-0.873965
0.877858
-0.015183
0.0117205
-1.04337
1.04683
-0.00819493
0.00515695
-1.24866
1.2517
-0.00194408
-0.00104102
-1.49695
1.49993
0.00400362
-0.00715459
-1.49741
1.50057
0.0101014
-0.0135007
-1.25006
1.25346
0.0168308
-0.0207278
-1.04564
1.04954
0.0244854
-0.0287161
-0.877124
0.881355
0.0326102
-0.036723
-0.73897
0.743083
0.0405355
-0.0450031
-0.625959
0.630426
0.0494935
-0.0549129
-0.535007
0.540426
0.0586762
-0.0594312
-0.458065
0.458821
0.0524746
-0.0320763
-0.336748
0.316349
0.00967713
-0.0686517
0.0589746
-0.0534222
0.0493143
0.00410789
-0.0332191
0.0436317
-0.358584
0.348171
-0.0472984
0.0467052
-0.459595
0.460188
-0.0437707
0.0405526
-0.536148
0.539366
-0.036869
0.0335078
-0.628414
0.631775
-0.0298662
0.0266176
-0.742055
0.745304
-0.023156
0.0199504
-0.88136
0.884566
-0.0163482
0.0129882
-1.05027
1.05363
-0.00928015
0.00586795
-1.25496
1.25838
-0.00207013
-0.00155074
-1.50329
1.50691
0.00513901
-0.0088424
-1.50406
1.50776
0.0121256
-0.0156549
-1.25701
1.26054
0.018828
-0.0222115
-1.05324
1.05663
0.0252245
-0.0284968
-0.884955
0.888227
0.0315924
-0.0350821
-0.746756
0.750246
0.0383141
-0.0418632
-0.634538
0.638088
0.0449648
-0.0477688
-0.544562
0.547366
0.0482268
-0.0443723
-0.456927
0.453072
0.0337293
-0.0163966
-0.297016
0.279684
0.00418372
-0.05312
0.0489363
-0.0461489
0.043598
0.00255096
-0.0230151
0.033348
-0.337594
0.327261
-0.0390665
0.0400048
-0.459946
0.459008
-0.0387436
0.0364075
-0.542029
0.544365
-0.0337557
0.0311998
-0.634751
0.637307
-0.0282116
0.0253531
-0.748398
0.751257
-0.0221036
0.0190789
-0.887632
0.890657
-0.0157159
0.0125708
-1.05682
1.05996
-0.00900217
0.00559226
-1.26178
1.26519
-0.00167318
-0.00212925
-1.51064
1.51445
0.00588934
-0.00968038
-1.51154
1.51533
0.0129184
-0.0162516
-1.26398
1.26732
0.019151
-0.0222282
-1.05983
1.06291
0.0249983
-0.0279925
-0.89141
0.894404
0.030641
-0.0334194
-0.753412
0.756191
0.0357983
-0.0382707
-0.64103
0.643502
0.0404536
-0.0415136
-0.549189
0.550249
0.0403656
-0.034341
-0.44793
0.441906
0.0236714
-0.0103972
-0.264473
0.251199
0.0026451
-0.0456858
0.0430407
-0.0414846
0.0396899
0.0017947
-0.016904
0.0261664
-0.317412
0.308149
-0.0327395
0.034843
-0.45746
0.455357
-0.0343934
0.0326822
-0.546404
0.548115
-0.0304402
0.0282984
-0.639628
0.64177
-0.0258447
0.0234511
-0.75387
0.756263
-0.0206196
0.0178578
-0.893529
0.89629
-0.0146569
0.0116073
-1.06302
1.06607
-0.00812672
0.00479843
-1.26852
1.27185
-0.000947879
-0.00280548
-1.51822
1.52197
0.00650404
-0.0101923
-1.51906
1.52275
0.0133013
-0.0164824
-1.27058
1.27376
0.0192197
-0.0220544
-1.06593
1.06876
0.0244871
-0.026988
-0.897172
0.899672
0.0291106
-0.0312952
-0.758615
0.760799
0.0332114
-0.0352221
-0.645714
0.647725
0.0367108
-0.0368856
-0.550814
0.550989
0.0344599
-0.0274383
-0.435287
0.428265
0.017724
-0.00750304
-0.239593
0.229372
0.00190995
-0.0408231
0.0389132
-0.0381462
0.0368014
0.0013448
-0.0128962
0.0208659
-0.299535
0.291565
-0.0276021
0.0305003
-0.452822
0.449924
-0.0306862
0.0295436
-0.549566
0.550708
-0.0275265
0.025582
-0.643841
0.645786
-0.0233492
0.0211884
-0.758523
0.760684
-0.0186588
0.0161708
-0.898859
0.901347
-0.0132292
0.0103545
-1.06899
1.07186
-0.0070053
0.00377315
-1.2751
1.27833
-2.63492e-05
-0.00361112
-1.52565
1.52928
0.00718105
-0.0107237
-1.52635
1.52989
0.013682
-0.0166571
-1.27686
1.27983
0.0191401
-0.0216217
-1.07148
1.07396
0.0236983
-0.0258132
-0.901964
0.904079
0.0276315
-0.0295217
-0.762821
0.764711
0.0311804
-0.0329194
-0.649577
0.651316
0.0337374
-0.0331682
-0.550793
0.550224
0.0298091
-0.0224581
-0.421021
0.41367
0.0139076
-0.0058083
-0.220312
0.212213
0.00148538
-0.0372422
0.0357568
-0.0356276
0.0345945
0.00103314
-0.0100622
0.0168004
-0.284234
0.277496
-0.0232787
0.0266326
-0.446775
0.443421
-0.0273898
0.0266762
-0.551626
0.552339
-0.0248889
0.0230852
-0.647696
0.649499
-0.0209994
0.0189712
-0.762778
0.764806
-0.0165856
0.0142451
-0.9037
0.906041
-0.0114927
0.00879483
-1.07458
1.07728
-0.00562278
0.00252981
-1.28146
1.28455
0.0010767
-0.0045792
-1.53283
1.53633
0.00799676
-0.0113516
-1.53333
1.53668
0.0141047
-0.0168142
-1.28268
1.28539
0.01903
-0.0212155
-1.07634
1.07853
0.0230479
-0.0249201
-0.906077
0.90795
0.026524
-0.0281849
-0.766476
0.768137
0.0296343
-0.0310388
-0.652908
0.654312
0.0313481
-0.030047
-0.549303
0.548002
0.0260579
-0.01877
-0.406324
0.399036
0.0113019
-0.00468822
-0.204926
0.198312
0.00120415
-0.0344282
0.033224
-0.0336877
0.0328854
0.000802306
-0.00795939
0.0136177
-0.271325
0.265667
-0.0196118
0.0231638
-0.439955
0.436403
-0.0243975
0.0239286
-0.552958
0.553427
-0.0224108
0.0207151
-0.651295
0.652991
-0.0187239
0.0167835
-0.766789
0.768729
-0.0144967
0.0122493
-0.908274
0.910521
-0.00960253
0.00701589
-1.07985
1.08244
-0.00398702
0.00103188
-1.28753
1.29048
0.00241218
-0.0057511
-1.53973
1.54307
0.00898688
-0.0121228
-1.53991
1.54304
0.0146598
-0.0171255
-1.28798
1.29045
0.0191228
-0.0210737
-1.08067
1.08262
0.022697
-0.0243533
-0.909722
0.911378
0.0257722
-0.0272401
-0.769693
0.771161
0.0284936
-0.0295152
-0.655509
0.656531
0.0294506
-0.0274745
-0.546367
0.544391
0.0230734
-0.0160402
-0.39187
0.384837
0.00947508
-0.00391578
-0.192276
0.186717
0.00101019
-0.032129
0.0311188
-0.0321809
0.0315571
0.000623793
-0.00633761
0.0110717
-0.260497
0.255763
-0.0164731
0.0200249
-0.432846
0.429294
-0.0215806
0.021335
-0.553814
0.55406
-0.0200476
0.0184129
-0.654701
0.656336
-0.0164767
0.0145843
-0.770642
0.772535
-0.0123552
0.0101663
-0.912669
0.914858
-0.00759029
0.00507593
-1.08491
1.08743
-0.00213917
-0.000703751
-1.29332
1.29617
0.00400439
-0.00717846
-1.54629
1.54947
0.0102249
-0.0131451
-1.54605
1.54897
0.015484
-0.0177341
-1.2928
1.29505
0.0195305
-0.0212579
-1.08456
1.08628
0.0226852
-0.0241443
-0.912941
0.9144
0.025398
-0.0266909
-0.772534
0.773827
0.0277962
-0.0283946
-0.657338
0.657936
0.0279562
-0.0254096
-0.542143
0.539597
0.0207519
-0.01404
-0.377974
0.371262
0.00818687
-0.00337896
-0.181571
0.176763
0.000876219
-0.0301855
0.0293093
-0.0310127
0.0305336
0.000479175
-0.00503184
0.00896795
-0.251451
0.247515
-0.0137303
0.0171316
-0.425821
0.42242
-0.018868
0.0188101
-0.554247
0.554305
-0.0177173
0.0161161
-0.658016
0.659617
-0.0142019
0.0123238
-0.774414
0.776292
-0.0101116
0.00794448
-0.916954
0.919122
-0.00540337
0.00293412
-1.08984
1.09231
-6.73978e-05
-0.00270426
-1.29891
1.30168
0.00588747
-0.0089152
-1.55253
1.55556
0.0117883
-0.0145096
-1.55176
1.55448
0.0166621
-0.0187035
-1.2972
1.29924
0.0203029
-0.0218124
-1.08802
1.08953
0.0230543
-0.0243327
-0.91577
0.917048
0.0254369
-0.0265684
-0.775031
0.776163
0.0274797
-0.0276982
-0.658341
0.65856
0.0268515
-0.0238202
-0.53682
0.533789
0.0190026
-0.0126026
-0.364723
0.358323
0.00728914
-0.00301172
-0.172252
0.167975
0.000786167
-0.0284872
0.027701
-0.0301218
0.029765
0.000356753
-0.00393706
0.00717126
-0.243951
0.240717
-0.0112816
0.0144214
-0.419159
0.416019
-0.0162116
0.016303
-0.554331
0.55424
-0.0152925
0.0137614
-0.661258
0.662789
-0.0118414
0.00994475
-0.77817
0.780067
-0.00771079
0.00552971
-0.921202
0.923383
-0.00298565
0.000528883
-1.09468
1.09714
0.00231312
-0.00502972
-1.30436
1.30708
0.00812261
-0.0110284
-1.55848
1.56139
0.0137472
-0.0162815
-1.55707
1.5596
0.0182537
-0.0200915
-1.30117
1.30301
0.0214978
-0.0227932
-1.09107
1.09237
0.023855
-0.0249604
-0.918236
0.919341
0.0259217
-0.0268863
-0.777202
0.778167
0.0275352
-0.027462
-0.658646
0.658573
0.0261669
-0.0226972
-0.530549
0.527079
0.0177611
-0.0116162
-0.352076
0.345931
0.00669026
-0.00277342
-0.163907
0.15999
0.000729802
-0.026952
0.0262222
-0.0294684
0.0292209
0.000247477
-0.00297666
0.00557667
-0.237819
0.235219
-0.00903458
0.0118293
-0.413066
0.410272
-0.0135583
0.0137276
-0.554157
0.553988
-0.0127557
0.0112665
-0.664382
0.665872
-0.0093174
0.0073725
-0.781972
0.783917
-0.00508107
0.0028518
-0.92548
0.92771
-0.000268435
-0.00221896
-1.0995
1.10199
0.00506738
-0.00776501
-1.30971
1.31241
0.0108003
-0.0136098
-1.5642
1.56701
0.0161934
-0.0185533
-1.56201
1.56437
0.0203526
-0.0219919
-1.30474
1.30638
0.0232054
-0.0242817
-1.09373
1.09481
0.0251574
-0.0260859
-0.920349
0.921278
0.0269025
-0.0276978
-0.77902
0.779815
0.028056
-0.027686
-0.658354
0.657984
0.0259323
-0.0220358
-0.523418
0.519522
0.0169799
-0.0110049
-0.339905
0.33393
0.00633088
-0.00263766
-0.156213
0.15252
0.000700343
-0.0255163
0.024816
-0.0290303
0.0288865
0.000143732
-0.00208684
0.00409111
-0.232933
0.230929
-0.00689153
0.00927041
-0.407703
0.405324
-0.0108296
0.0109969
-0.553877
0.553709
-0.01003
0.00854395
-0.66746
0.668947
-0.0065386
0.00451509
-0.785876
0.787899
-0.00212931
-0.000180069
-0.929857
0.932166
0.00285315
-0.00540098
-1.10439
1.10694
0.00829522
-0.0110069
-1.31504
1.31775
0.0140166
-0.0167535
-1.56973
1.57247
0.0192174
-0.0214113
-1.5666
1.56879
0.0230405
-0.0244803
-1.30789
1.30933
0.0254931
-0.0263365
-1.09599
1.09683
0.0270145
-0.0277499
-0.922093
0.922829
0.0284122
-0.0290648
-0.780477
0.78113
0.0291047
-0.0283459
-0.65741
0.656651
0.0261294
-0.0218091
-0.51546
0.51114
0.0166068
-0.0107061
-0.328033
0.322132
0.00616538
-0.00258399
-0.148911
0.145329
0.000692297
-0.0241292
0.0234369
-0.0287997
0.0287606
3.90772e-05
-0.00121969
0.00264302
-0.229229
0.227806
-0.00477231
0.00667151
-0.403205
0.401306
-0.00795583
0.00803773
-0.553654
0.553572
-0.00702781
0.00550631
-0.670573
0.672095
-0.00340544
0.00126886
-0.789942
0.792078
0.00125252
-0.00368762
-0.934401
0.936836
0.00648292
-0.00913067
-1.10941
1.11206
0.0121121
-0.0148727
-1.32039
1.32316
0.017889
-0.0205754
-1.57513
1.57781
0.0229332
-0.0249674
-1.57085
1.57289
0.0264279
-0.0276653
-1.31064
1.31187
0.0284722
-0.0290796
-1.09782
1.09843
0.0295532
-0.0300836
-0.923447
0.923977
0.0305757
-0.0310139
-0.781567
0.782005
0.0307614
-0.0295272
-0.65569
0.654456
0.0268156
-0.0220381
-0.506659
0.501881
0.0166294
-0.0106914
-0.31626
0.310322
0.00617119
-0.0026024
-0.141784
0.138215
0.000703189
-0.0227493
0.0220461
-0.0287798
0.0288486
-6.87582e-05
-0.000336787
0.00117131
-0.226686
0.225852
-0.00259975
0.00395243
-0.3997
0.398347
-0.00485695
0.00476763
-0.553662
0.553751
-0.00365654
0.00204682
-0.67381
0.67542
0.000186071
-0.00247521
-0.794239
0.796528
0.00517864
-0.00778011
-0.939192
0.941793
0.0107502
-0.0135427
-1.11464
1.11743
0.0166567
-0.0195035
-1.32586
1.32871
0.0225606
-0.0252194
-1.58042
1.58308
0.0274836
-0.0293602
-1.57478
1.57666
0.030648
-0.0316757
-1.31295
1.31398
0.0322713
-0.0326356
-1.09921
1.09957
0.0328956
-0.0332077
-0.92438
0.924693
0.0335061
-0.0336466
-0.782126
0.782266
0.0330824
-0.031295
-0.653031
0.651243
0.0280326
-0.0227384
-0.496938
0.491643
0.0170406
-0.0109433
-0.304361
0.298264
0.00633393
-0.00268589
-0.134638
0.13099
0.000730911
-0.0213399
0.020609
-0.0289858
0.0291732
-0.000187378
0.000589545
-0.000377569
-0.225327
0.225115
-0.000295685
0.00102401
-0.397311
0.396583
-0.00144122
0.00109478
-0.554078
0.554425
0.000170217
-0.0019437
-0.677285
0.679059
0.00437064
-0.00686482
-0.798853
0.801347
0.00980457
-0.0126221
-0.944319
0.947136
0.015821
-0.0188062
-1.12016
1.12315
0.022102
-0.0250742
-1.33151
1.33448
0.0282064
-0.030858
-1.58567
1.58832
0.0330353
-0.034749
-1.57839
1.5801
0.0358575
-0.0366617
-1.31482
1.31562
0.0370356
-0.0371416
-1.10011
1.10021
0.0371707
-0.0372488
-0.924858
0.924936
0.0373497
-0.0371062
-0.782042
0.781799
0.0361499
-0.0337343
-0.64929
0.646874
0.0298434
-0.0239379
-0.486157
0.480251
0.0178422
-0.0114511
-0.292082
0.28569
0.00664303
-0.00282872
-0.127292
0.123478
0.000773704
-0.0198679
0.0190942
-0.0294454
0.0297824
-0.000336976
0.00163627
-0.00206437
-0.225245
0.225673
0.00224158
-0.00224542
-0.396179
0.396183
0.00244866
-0.00316425
-0.555128
0.555843
0.00467141
-0.006647
-0.681143
0.683118
0.00931905
-0.0120701
-0.803872
0.806623
0.0153083
-0.0183995
-0.949881
0.952972
0.0218891
-0.0251204
-1.12608
1.12931
0.0286499
-0.0317868
-1.33741
1.34055
0.0350255
-0.0376863
-1.5909
1.59357
0.0397789
-0.0413168
-1.58165
1.58319
0.0422234
-0.0427949
-1.31619
1.31676
0.0429364
-0.0427608
-1.10047
1.1003
0.0425341
-0.0423602
-0.924826
0.924652
0.0422532
-0.0415238
-0.781151
0.780422
0.0400867
-0.0369341
-0.64431
0.641157
0.0323041
-0.0256575
-0.474115
0.467469
0.0190319
-0.0122019
-0.27915
0.27232
0.00708621
-0.00302378
-0.119574
0.115512
0.000829066
-0.0183046
0.0174756
-0.0301891
0.0307064
-0.000517299
0.00293834
-0.0041396
-0.226505
0.227707
0.00519298
-0.00600631
-0.396515
0.397328
0.00693622
-0.00811997
-0.557039
0.558223
0.00995503
-0.0122121
-0.68549
0.687747
0.0152171
-0.0183005
-0.809412
0.812496
0.0219157
-0.0253489
-0.955997
0.95943
0.0291997
-0.0327351
-1.1325
1.13604
0.0365526
-0.0398921
-1.34365
1.34699
0.043263
-0.0459387
-1.59615
1.59883
0.0479358
-0.0492804
-1.58455
1.58589
0.0499554
-0.0502775
-1.31704
1.31736
0.0501655
-0.049686
-1.10025
1.09977
0.0491858
-0.0487457
-0.924227
0.923787
0.0483073
-0.0471102
-0.779321
0.778124
0.0450319
-0.0409969
-0.637857
0.633822
0.035481
-0.0279242
-0.460538
0.452981
0.0206108
-0.0131843
-0.265272
0.257846
0.00765089
-0.00326329
-0.111324
0.106936
0.000894211
-0.0166262
0.015732
-0.0312919
0.0320345
-0.000742609
0.00446061
-0.00655715
-0.229316
0.231412
0.00868543
-0.0104186
-0.398532
0.400265
0.0121823
-0.0139552
-0.560065
0.561838
0.0162546
-0.0188959
-0.690492
0.693133
0.0223453
-0.0258471
-0.815625
0.819127
0.0299303
-0.0337841
-0.962808
0.966662
0.0380742
-0.0419745
-1.13954
1.14344
0.0461311
-0.0497023
-1.3503
1.35387
0.0532148
-0.0558926
-1.60142
1.6041
0.0577644
-0.0588754
-1.58703
1.58815
0.0592813
-0.0593134
-1.31729
1.31732
0.0589253
-0.0581192
-1.09939
1.09859
0.0573205
-0.056581
-0.923018
0.922278
0.0557333
-0.0540009
-0.776595
0.774862
0.0511382
-0.0460232
-0.62963
0.624515
0.0394236
-0.0307416
-0.44507
0.436388
0.0225582
-0.0143692
-0.250128
0.241939
0.0083126
-0.00353357
-0.102391
0.0976119
0.000964501
-0.014815
0.0138505
-0.0328383
0.0338728
-0.00103445
0.00636263
-0.00952426
-0.233918
0.23708
0.0129354
-0.0157371
-0.402499
0.405301
0.0184807
-0.0209687
-0.564487
0.566975
0.0238773
-0.0270256
-0.696368
0.699516
0.0310518
-0.0350844
-0.822683
0.826716
0.0397436
-0.0441052
-0.970472
0.974834
0.0489158
-0.0532377
-1.14732
1.15164
0.0577712
-0.0615837
-1.3574
1.36121
0.0652206
-0.0678609
-1.60666
1.6093
0.0695549
-0.070371
-1.58902
1.58983
0.0704488
-0.0701319
-1.31682
1.3165
0.069442
-0.0682675
-1.09781
1.09664
0.067132
-0.0661024
-0.92115
0.92012
0.0647225
-0.0623605
-0.772811
0.770449
0.0585269
-0.0520727
-0.619224
0.61277
0.0441394
-0.034073
-0.42727
0.417204
0.024817
-0.0157
-0.233386
0.224269
0.00902861
-0.00381238
-0.0926528
0.0874366
0.00103276
-0.0128642
0.0118315
-0.0349538
0.0363913
-0.00143747
0.00884643
-0.0133718
-0.240638
0.245163
0.0182838
-0.0223303
-0.408784
0.41283
0.0262217
-0.0295778
-0.570633
0.573989
0.0332721
-0.0370878
-0.703384
0.7072
0.0418567
-0.0465514
-0.830805
0.8355
0.0519073
-0.0568668
-0.979167
0.984127
0.0622698
-0.0670481
-1.15594
1.16071
0.0719602
-0.0759825
-1.36495
1.36897
0.0796747
-0.0821877
-1.61177
1.61428
0.0836047
-0.0840251
-1.59035
1.59077
0.0837131
-0.0829666
-1.31553
1.31478
0.0819185
-0.08036
-1.09542
1.09386
0.078905
-0.0774523
-0.918591
0.917138
0.0755568
-0.072324
-0.767722
0.76449
0.0672753
-0.05915
-0.606104
0.597978
0.0495676
-0.0378114
-0.406612
0.394856
0.0272709
-0.0170783
-0.214728
0.204535
0.00973135
-0.00406715
-0.0820344
0.0763702
0.00108918
-0.0107823
0.00969317
-0.037841
0.0398461
-0.00200513
0.0122979
-0.0185551
-0.249998
0.256256
0.0252718
-0.0307735
-0.417884
0.423385
0.036025
-0.0404483
-0.578896
0.583319
0.0451353
-0.0498196
-0.711884
0.716569
0.0555423
-0.0610502
-0.840246
0.845754
0.0672221
-0.0728467
-0.989067
0.994692
0.0788678
-0.0840801
-1.16544
1.17065
0.0892973
-0.093422
-1.37285
1.37697
0.0970165
-0.0992408
-1.61654
1.61876
0.100224
-0.100102
-1.59081
1.59069
0.0993101
-0.0980196
-1.31329
1.312
0.0965643
-0.0946051
-1.09217
1.09021
0.0927894
-0.0907973
-0.915031
0.913039
0.0883588
-0.0839933
-0.760802
0.756437
0.0773947
-0.0671605
-0.589569
0.579335
0.0555397
-0.0417513
-0.382491
0.368703
0.0297244
-0.0183547
-0.193885
0.182515
0.0103249
-0.00425463
-0.0705399
0.0644696
0.00112146
-0.00859871
0.00747725
-0.0418226
0.044709
-0.00288643
0.0173011
-0.0258242
-0.262739
0.271263
0.0347844
-0.0420484
-0.430463
0.437727
0.0489426
-0.0546372
-0.589766
0.59546
0.0606411
-0.0664847
-0.722291
0.728134
0.0733522
-0.0797795
-0.851284
0.857711
0.0868195
-0.0930924
-1.00028
1.00655
0.0996446
-0.105154
-1.17573
1.18124
0.110472
-0.114478
-1.38083
1.38484
0.117704
-0.119383
-1.6206
1.62227
0.119697
-0.118831
-1.59008
1.58922
0.117398
-0.115473
-1.30989
1.30797
0.113556
-0.111162
-1.08795
1.08556
0.108962
-0.106318
-0.910207
0.907562
0.103162
-0.0972873
-0.751463
0.745588
0.0886904
-0.0758063
-0.568707
0.555823
0.0617004
-0.045536
-0.354264
0.338099
0.0318735
-0.0193179
-0.170713
0.158158
0.0106831
-0.00432165
-0.0582914
0.05193
0.00111535
-0.00636779
0.00525244
-0.0474835
0.0518613
-0.00437786
0.0250537
-0.0366623
-0.280021
0.29163
0.0485454
-0.0581479
-0.447567
0.457169
0.067078
-0.0742476
-0.603844
0.611014
0.0818056
-0.089182
-0.73497
0.742346
0.0972632
-0.104534
-0.864122
0.871392
0.11228
-0.118983
-1.01268
1.01938
0.125751
-0.131219
-1.18644
1.19191
0.136227
-0.139721
-1.38837
1.39187
0.142144
-0.142888
-1.62336
1.6241
0.142204
-0.140346
-1.58772
1.58587
0.138108
-0.135438
-1.30514
1.30247
0.132975
-0.130119
-1.08266
1.0798
0.127403
-0.124109
-0.903969
0.900675
0.119871
-0.11193
-0.73887
0.730929
0.100706
-0.0845239
-0.54237
0.526188
0.0674755
-0.0486659
-0.321334
0.302525
0.0333338
-0.0197283
-0.145307
0.131701
0.0106743
-0.00421712
-0.0455708
0.0391137
0.00105738
-0.00417081
0.00311343
-0.0559098
0.0634226
-0.00751281
0.0386917
-0.0547943
-0.304014
0.320116
0.0707589
-0.0835784
-0.470828
0.483647
0.0946871
-0.103247
-0.621571
0.63013
0.112323
-0.120985
-0.75032
0.758982
0.130008
-0.137709
-0.878454
0.886155
0.145573
-0.152098
-1.02567
1.0322
0.158394
-0.163172
-1.19675
1.20152
0.167185
-0.169543
-1.39457
1.39693
0.170581
-0.169941
-1.62398
1.62334
0.167906
-0.164754
-1.58324
1.58009
0.16149
-0.157909
-1.2988
1.29521
0.154817
-0.15149
-1.07614
1.07281
0.148212
-0.144
-0.896022
0.891809
0.138115
-0.127275
-0.72175
0.71091
0.112578
-0.0923535
-0.50913
0.488906
0.0720717
-0.0505926
-0.283334
0.261855
0.0337811
-0.0194551
-0.118135
0.103809
0.0102597
-0.00394222
-0.0328434
0.0265259
0.000950463
-0.0021142
0.00116374
-0.0704168
0.0746251
-0.00420831
0.0296491
-0.0436014
-0.338747
0.352699
0.0577571
-0.069479
-0.501694
0.513416
0.0800109
-0.0898576
-0.642558
0.652404
0.100899
-0.111004
-0.767218
0.777324
0.122253
-0.13232
-0.892982
0.903049
0.143094
-0.152721
-1.03779
1.04741
0.162823
-0.171538
-1.20523
1.21394
0.180273
-0.18734
-1.39815
1.40521
0.193783
-0.198203
-1.62153
1.62595
0.20058
-0.201521
-1.57595
1.5769
0.201298
-0.200532
-1.29052
1.28975
0.199994
-0.198977
-1.06816
1.06714
0.197404
-0.193111
-0.885559
0.881266
0.18469
-0.167986
-0.698231
0.681527
0.145231
-0.115269
-0.467533
0.43757
0.086979
-0.0586343
-0.240393
0.212048
0.0378101
-0.0210276
-0.0902001
0.0734176
0.0107323
-0.0039735
-0.0207306
0.0139718
0.000916681
-0.000299503
-0.000617178
-0.0819044
0.0800465
0.00185795
0.00767048
-0.0169072
-0.369508
0.378745
0.0276839
-0.0360158
-0.529884
0.538216
0.0444972
-0.0528664
-0.664831
0.6732
0.063023
-0.0724916
-0.787094
0.796563
0.0825976
-0.09186
-0.912571
0.921834
0.101737
-0.110222
-1.05676
1.06524
0.119317
-0.126799
-1.22248
1.22996
0.134253
-0.140012
-1.412
1.41776
0.144737
-0.14765
-1.62962
1.63253
0.148568
-0.148079
-1.57722
1.57673
0.14642
-0.144105
-1.28808
1.28577
0.142101
-0.139927
-1.06346
1.06128
0.137239
-0.131669
-0.872497
0.866927
0.122484
-0.107092
-0.66066
0.645268
0.088817
-0.0669807
-0.405928
0.384092
0.0483568
-0.031501
-0.184454
0.167598
0.019947
-0.0110458
-0.0577998
0.0488986
0.00567532
-0.00210926
-0.00757194
0.00400588
0.000424743
0.0016048
-0.00202954
-0.0833829
0.0804289
0.00295407
-0.00171289
-0.00367146
-0.390315
0.3957
0.0110443
-0.0170898
-0.550786
0.556832
0.0233841
-0.0307071
-0.683714
0.691037
0.0394968
-0.0477178
-0.805137
0.813358
0.0567176
-0.0647982
-0.930343
0.938424
0.0731611
-0.0807033
-1.07354
1.08108
0.0885629
-0.0951018
-1.23698
1.24352
0.101137
-0.105567
-1.42282
1.42725
0.109136
-0.11076
-1.63472
1.63634
0.11043
-0.108727
-1.57564
1.57394
0.106116
-0.102951
-1.28303
1.27987
0.099693
-0.0962886
-1.05652
1.05312
0.0925872
-0.0867874
-0.857389
0.851589
0.0782972
-0.0653987
-0.626794
0.613895
0.0518785
-0.0373753
-0.36067
0.346167
0.0264541
-0.0173658
-0.150672
0.141584
0.0113276
-0.00663167
-0.0402288
0.0355329
0.00359996
-0.00133178
-0.00057417
-0.001694
0.000300441
0.00267935
-0.00297979
-0.0820626
0.0792524
0.00281018
-0.00549992
0.00292224
-0.404197
0.406774
0.00185713
-0.00643734
-0.56624
0.570821
0.0117328
-0.0178547
-0.699294
0.705416
0.0253356
-0.0323575
-0.820937
0.827959
0.0400339
-0.0469464
-0.945959
0.952872
0.0544737
-0.060837
-1.08816
1.09452
0.0676405
-0.0728087
-1.2496
1.25477
0.0778448
-0.0813725
-1.4314
1.43493
0.0837801
-0.0841323
-1.63745
1.6378
0.0829681
-0.0804627
-1.57161
1.5691
0.0771425
-0.0728328
-1.27622
1.27191
0.0687923
-0.0643977
-1.04771
1.04332
0.0597496
-0.0540241
-0.841473
0.835747
0.046578
-0.0368505
-0.598425
0.588697
0.0277439
-0.0192636
-0.330614
0.322134
0.0136259
-0.00934237
-0.131784
0.127501
0.00652981
-0.00420275
-0.0304121
0.028085
0.00241615
-0.0010054
0.00404021
-0.00545096
0.0002579
0.00353747
-0.00379537
-0.0804482
0.0779277
0.00252044
-0.00678299
0.00588398
-0.413389
0.414288
-0.00238252
-0.000898853
-0.578604
0.581885
0.00517973
-0.010709
-0.712317
0.717847
0.0169597
-0.0230854
-0.834268
0.840393
0.0296902
-0.0356437
-0.959304
0.965258
0.0420374
-0.0476183
-1.10071
1.10629
0.0532876
-0.0578837
-1.25974
1.26433
0.0620223
-0.0647504
-1.43801
1.44074
0.0662969
-0.0658568
-1.63787
1.63743
0.0639464
-0.0604979
-1.56577
1.56232
0.0565346
-0.0516586
-1.26731
1.26244
0.0469174
-0.0415345
-1.03735
1.03197
0.0363971
-0.0306932
-0.825885
0.820181
0.0245594
-0.0173318
-0.576693
0.569465
0.0116737
-0.00740754
-0.312363
0.308097
0.00518041
-0.00388861
-0.122147
0.120856
0.00311452
-0.00232743
-0.0251536
0.0243665
0.00144762
-0.000682112
0.00715355
-0.00791906
0.000202443
0.00429894
-0.00450138
-0.0788907
0.076702
0.00218869
-0.00679629
0.00647543
-0.419581
0.419901
-0.00441998
0.00179389
-0.588032
0.590658
0.00228223
-0.00698171
-0.723291
0.727991
0.0123103
-0.0175919
-0.845712
0.850994
0.0234113
-0.0286683
-0.97083
0.976087
0.0344249
-0.0392227
-1.11154
1.11634
0.0441897
-0.048171
-1.26857
1.27256
0.0516032
-0.0537052
-1.44311
1.44521
0.054559
-0.0538677
-1.63677
1.63608
0.0513369
-0.047461
-1.55827
1.5544
0.042981
-0.0375372
-1.25715
1.2517
0.0325031
-0.0264108
-1.02556
1.01947
0.0208222
-0.0152042
-0.810993
0.805375
0.00990989
-0.00449235
-0.560335
0.554917
0.00114763
0.000518731
-0.301901
0.300235
-0.000556942
0.000122298
-0.11817
0.118605
0.000275267
-0.000574233
-0.0231253
0.0234242
0.000459984
-0.000304009
0.00887194
-0.00902791
0.000117493
0.00487441
-0.0049919
-0.0776288
0.0758911
0.00173766
-0.00602375
0.00610049
-0.424027
0.42395
-0.00450344
0.00258027
-0.596164
0.598087
0.00116722
-0.00538828
-0.732699
0.73692
0.0103878
-0.0148905
-0.855855
0.860358
0.0199446
-0.0245404
-0.981281
0.985877
0.0299043
-0.0341631
-1.12112
1.12538
0.0384442
-0.0420485
-1.27628
1.27989
0.0453923
-0.0470705
-1.44724
1.44892
0.0476164
-0.0464621
-1.63486
1.63371
0.0438801
-0.0394042
-1.55015
1.54568
0.0347944
-0.0291836
-1.24591
1.24029
0.0236963
-0.0174632
-1.01278
1.00655
0.011597
-0.00565277
-0.796683
0.790738
0.00117313
0.00302607
-0.54732
0.54312
-0.00528237
0.00553028
-0.296106
0.295858
-0.00466408
0.00340817
-0.117851
0.119107
-0.00220252
0.00107785
-0.0233997
0.0245244
-0.000494177
9.57161e-05
0.00928073
-0.00888227
1.76096e-05
0.00519149
-0.0052091
-0.0768442
0.0754538
0.00139043
-0.00502185
0.00527524
-0.427392
0.427138
-0.00392979
0.00213385
-0.603128
0.604924
0.00140601
-0.00512723
-0.741062
0.744783
0.00935787
-0.0136462
-0.864779
0.869068
0.0182481
-0.0229038
-0.990244
0.9949
0.0274313
-0.0313967
-1.12969
1.13366
0.0356665
-0.0388697
-1.28331
1.28651
0.0415282
-0.0434011
-1.45042
1.45229
0.0438273
-0.0426199
-1.6325
1.63129
0.0398216
-0.0354978
-1.54127
1.53695
0.0308023
-0.0250633
-1.23421
1.22847
0.019547
-0.0131844
-0.999748
0.993385
0.00726767
-0.00137298
-0.782854
0.776959
-0.00288496
0.00637294
-0.536375
0.532887
-0.00816219
0.00813048
-0.292909
0.29294
-0.00694745
0.00525458
-0.119168
0.120861
-0.00374039
0.00220044
-0.0252479
0.0267879
-0.00117899
0.000415583
0.00854322
-0.00777981
-7.28257e-05
0.00522986
-0.00515703
-0.0765761
0.0754015
0.00117466
-0.00378965
0.00384355
-0.430282
0.430228
-0.00282582
0.00108857
-0.609413
0.61115
0.00225921
-0.00580319
-0.748726
0.75227
0.00981088
-0.0136383
-0.873108
0.876935
0.0182911
-0.0220812
-0.998939
1.00273
0.0264894
-0.0301791
-1.13773
1.14142
0.0342143
-0.0374872
-1.28964
1.29291
0.0402671
-0.0417353
-1.45385
1.45532
0.0422638
-0.0411929
-1.62992
1.62885
0.0387437
-0.0344044
-1.5324
1.52806
0.0298556
-0.0242091
-1.22274
1.2171
0.0188102
-0.012481
-0.98654
0.98021
0.0067624
-0.000789952
-0.769485
0.763513
-0.00348164
0.00675838
-0.526711
0.523434
-0.00855949
0.00864535
-0.290515
0.290429
-0.007692
0.00609678
-0.121171
0.122766
-0.00457315
0.0028853
-0.0278691
0.029557
-0.00164403
0.00065756
0.00707987
-0.0060934
-0.000155439
0.00505299
-0.00489756
-0.0765801
0.0757419
0.000838242
-0.00265311
0.0022631
-0.43318
0.43357
-0.00141274
-0.000358928
-0.614883
0.616655
0.00337434
-0.00674124
-0.755796
0.759163
0.0105359
-0.0144487
-0.88059
0.884503
0.0184231
-0.0223182
-1.00669
1.01059
0.0266176
-0.0300229
-1.1455
1.14891
0.0340535
-0.0371776
-1.29593
1.29905
0.0398857
-0.0417481
-1.45713
1.459
0.0425863
-0.0416011
-1.62774
1.62676
0.0391841
-0.0353439
-1.52383
1.51999
0.031155
-0.0256969
-1.21128
1.20582
0.02041
-0.0145144
-0.973661
0.967765
0.00862431
-0.0029529
-0.756294
0.750623
-0.00151652
0.00492317
-0.517572
0.514165
-0.00668886
0.00735075
-0.287963
0.287301
-0.00691775
0.00583448
-0.122994
0.124077
-0.00453956
0.00301367
-0.0306404
0.0321663
-0.00179942
0.000778942
0.00522397
-0.00420349
-0.000205399
0.00470445
-0.00449905
-0.0770024
0.076335
0.000667408
-0.00168427
0.00137254
-0.436249
0.43656
-8.66064e-05
-0.00172429
-0.6203
0.622111
0.00483769
-0.00803323
-0.762283
0.765479
0.0116407
-0.0151124
-0.888048
0.89152
0.019169
-0.0227021
-1.01446
1.01799
0.026896
-0.0306842
-1.15273
1.15652
0.0342782
-0.0376594
-1.30217
1.30555
0.0406951
-0.0425445
-1.4607
1.46255
0.043623
-0.0432833
-1.62593
1.6256
0.041163
-0.037809
-1.51597
1.51261
0.0337338
-0.0286733
-1.2004
1.19534
0.0237799
-0.0180357
-0.961389
0.955645
0.012517
-0.00686812
-0.743653
0.738004
0.00220067
0.00161835
-0.508234
0.504415
-0.00374342
0.00486807
-0.284645
0.28352
-0.00510119
0.00458945
-0.12388
0.124391
-0.00375429
0.00262875
-0.0329911
0.0341167
-0.00163867
0.000758618
0.00336476
-0.00248471
-0.000217684
0.00427751
-0.00405983
-0.0777165
0.0772312
0.00048538
-0.0006206
0.000194675
-0.439474
0.4399
0.00115989
-0.00321078
-0.625445
0.627495
0.00620646
-0.00922075
-0.76847
0.771484
0.012893
-0.0161842
-0.894941
0.898232
0.0200493
-0.0236742
-1.02198
1.0256
0.0277302
-0.0314423
-1.16012
1.16383
0.0352092
-0.0385619
-1.30881
1.31216
0.0417149
-0.044243
-1.46464
1.46717
0.0456679
-0.0455168
-1.62513
1.62498
0.0439851
-0.0408607
-1.50912
1.50599
0.0372929
-0.0327641
-1.19023
1.1857
0.027953
-0.0224902
-0.949602
0.944139
0.017198
-0.01151
-0.73136
0.725672
0.00684267
-0.0024962
-0.498732
0.494385
-7.37311e-05
0.00191378
-0.280396
0.278556
-0.00270291
0.00281949
-0.123589
0.123472
-0.00253616
0.00190938
-0.0345116
0.0351383
-0.00125361
0.000627992
0.0018284
-0.00120278
-0.000190126
0.00385327
-0.00366314
-0.0786713
0.0783201
0.000351238
0.000278514
-0.000892318