/*--------------------------------*- C++ -*----------------------------------*\
  =========                 |
  \\      /  F ield         | OpenFOAM: The Open Source CFD Toolbox
   \\    /   O peration     | Website:  https://openfoam.org
    \\  /    A nd           | Version:  9
     \\/     M anipulation  |
\*---------------------------------------------------------------------------*/
FoamFile
{
    format      ascii;
    class       volVectorField;
    location    "72";
    object      U;
}
// * * * * * * * * * * * * * * * * * * * * * * * * * * * * * * * * * * * * * //

dimensions      [0 1 -1 0 0 0 0];

internalField   nonuniform List<vector> 
8800
(
(0.980135 -0.09152 0)
(1.00234 -0.0587303 0)
(0.999586 -0.0321281 0)
(0.999988 -0.0165202 0)
(1.0001 -0.00883865 0)
(1.00012 -0.00509263 0)
(1.00007 -0.00298815 0)
(1.00003 -0.00167714 0)
(0.999998 -0.000775285 0)
(1.00007 -7.58239e-05 0)
(0.999974 0.000634239 0)
(0.999984 0.00139274 0)
(1.00003 0.0024137 0)
(1.00006 0.00400985 0)
(1.00004 0.00675342 0)
(1 0.0120539 0)
(0.999813 0.0230955 0)
(0.999035 0.043155 0)
(1.00724 0.0790245 0)
(0.775027 0.0478395 0)
(0.359001 -0.0147478 0)
(1.04651 -0.0724754 0)
(1.08848 -0.066011 0)
(1.04945 -0.0509014 0)
(1.02556 -0.0376767 0)
(1.01278 -0.0258668 0)
(1.00661 -0.0166659 0)
(1.00365 -0.0101713 0)
(1.00219 -0.00553574 0)
(1.00151 -0.00193705 0)
(1.00137 0.00127752 0)
(1.00171 0.00459035 0)
(1.0027 0.00847771 0)
(1.00476 0.0137764 0)
(1.00898 0.021445 0)
(1.01795 0.0319307 0)
(1.0358 0.0446976 0)
(1.06743 0.0581348 0)
(1.09468 0.0699476 0)
(0.845604 0.0555092 0)
(0.217826 -0.00137932 0)
(1.0757 -0.0506269 0)
(1.09943 -0.0489042 0)
(1.06442 -0.0399809 0)
(1.03995 -0.0325135 0)
(1.02386 -0.0252894 0)
(1.01406 -0.0180584 0)
(1.00854 -0.011426 0)
(1.00566 -0.00565925 0)
(1.00447 -0.000360876 0)
(1.00477 0.0047533 0)
(1.00661 0.0100421 0)
(1.01057 0.0159959 0)
(1.01789 0.0227306 0)
(1.03047 0.0298224 0)
(1.05046 0.0368987 0)
(1.08003 0.044665 0)
(1.10563 0.0519772 0)
(0.943203 0.0410275 0)
(0.217138 0.00140713 0)
(0.176709 -0.000627409 0)
(1.01949 -0.0354307 0)
(1.10577 -0.0413591 0)
(1.07804 -0.0363311 0)
(1.05253 -0.0302729 0)
(1.03531 -0.0243807 0)
(1.02343 -0.0185682 0)
(1.01559 -0.0125531 0)
(1.01096 -0.00644152 0)
(1.0089 -0.000192227 0)
(1.0094 0.00596909 0)
(1.01247 0.011883 0)
(1.01846 0.0176296 0)
(1.02804 0.0231751 0)
(1.04221 0.0287072 0)
(1.06303 0.0344709 0)
(1.09382 0.0403403 0)
(1.09436 0.0418445 0)
(0.830028 0.0228046 0)
(0.175535 0.000649802 0)
(0.154833 -0.000461069 0)
(0.958369 -0.0256489 0)
(1.10451 -0.035044 0)
(1.08818 -0.0325771 0)
(1.06138 -0.0280528 0)
(1.04334 -0.0230698 0)
(1.03092 -0.0177451 0)
(1.0223 -0.01218 0)
(1.01671 -0.00624768 0)
(1.01402 0.000221811 0)
(1.01462 0.00668567 0)
(1.01838 0.0125549 0)
(1.0252 0.017843 0)
(1.03532 0.0228114 0)
(1.05002 0.0276134 0)
(1.07195 0.0320304 0)
(1.10092 0.0358856 0)
(1.06953 0.0340626 0)
(0.742219 0.0144894 0)
(0.153072 0.000486203 0)
(0.140189 -0.000332769 0)
(0.901486 -0.0192751 0)
(1.09699 -0.0301298 0)
(1.09636 -0.0292269 0)
(1.06913 -0.0254222 0)
(1.0503 -0.0213114 0)
(1.0373 -0.0165837 0)
(1.02828 -0.0113051 0)
(1.02229 -0.00555454 0)
(1.01925 0.000821574 0)
(1.01981 0.00719996 0)
(1.02378 0.0128444 0)
(1.03083 0.0177899 0)
(1.04131 0.022212 0)
(1.05663 0.0261318 0)
(1.07941 0.0296179 0)
(1.10316 0.0323041 0)
(1.03761 0.0282524 0)
(0.675217 0.0103526 0)
(0.137706 0.000362608 0)
(0.129498 -0.000251076 0)
(0.851771 -0.0148691 0)
(1.08474 -0.0260095 0)
(1.1021 -0.0263218 0)
(1.076 -0.0229737 0)
(1.05666 -0.0192888 0)
(1.04324 -0.0150584 0)
(1.03384 -0.01016 0)
(1.02757 -0.00462659 0)
(1.02429 0.00156736 0)
(1.02471 0.00773005 0)
(1.02868 0.0130905 0)
(1.03588 0.0176085 0)
(1.04663 0.0214197 0)
(1.06232 0.0247367 0)
(1.08554 0.0277379 0)
(1.10231 0.0295155 0)
(1.00274 0.0237431 0)
(0.622939 0.00796098 0)
(0.126132 0.000287353 0)
(0.121367 -0.000191988 0)
(0.809464 -0.0116743 0)
(1.06955 -0.0223939 0)
(1.1057 -0.0236617 0)
(1.08231 -0.0207609 0)
(1.06251 -0.0172984 0)
(1.04881 -0.0133451 0)
(1.03914 -0.00876277 0)
(1.03259 -0.00349834 0)
(1.02906 0.0024662 0)
(1.02931 0.00836007 0)
(1.03321 0.0133652 0)
(1.04046 0.0174197 0)
(1.0513 0.0207513 0)
(1.06722 0.0236701 0)
(1.09083 0.0263486 0)
(1.09856 0.0272097 0)
(0.967391 0.0202072 0)
(0.580888 0.00640626 0)
(0.116927 0.000236048 0)
(0.115081 -0.000147067 0)
(0.773848 -0.00928006 0)
(1.05285 -0.019206 0)
(1.10812 -0.0211976 0)
(1.08824 -0.0186733 0)
(1.06802 -0.0153669 0)
(1.05406 -0.0115764 0)
(1.0442 -0.00718958 0)
(1.03741 -0.0021579 0)
(1.03361 0.00355093 0)
(1.03361 0.00913639 0)
(1.03738 0.0137623 0)
(1.04456 0.0174091 0)
(1.0554 0.0203569 0)
(1.07154 0.0229419 0)
(1.09484 0.0252652 0)
(1.09195 0.0253116 0)
(0.93291 0.0174809 0)
(0.546046 0.00534433 0)
(0.109335 0.000200518 0)
(0.110194 -0.00011149 0)
(0.744002 -0.00742193 0)
(1.03571 -0.0163739 0)
(1.10961 -0.0188746 0)
(1.09387 -0.016657 0)
(1.07336 -0.0134454 0)
(1.05912 -0.00974728 0)
(1.04906 -0.00547789 0)
(1.04204 -0.000609618 0)
(1.03794 0.00485708 0)
(1.03764 0.0101241 0)
(1.04117 0.0143871 0)
(1.0482 0.0176661 0)
(1.05902 0.0202629 0)
(1.07537 0.022555 0)
(1.09754 0.0244978 0)
(1.08286 0.0237694 0)
(0.899874 0.0154165 0)
(0.516338 0.00460733 0)
(0.102861 0.000176218 0)
(0.106414 -8.20215e-05 0)
(0.719107 -0.00592299 0)
(1.01897 -0.0138264 0)
(1.11027 -0.016624 0)
(1.09941 -0.0146818 0)
(1.07863 -0.0114835 0)
(1.06408 -0.00781504 0)
(1.05379 -0.0036037 0)
(1.04651 0.00115939 0)
(1.04207 0.0064249 0)
(1.04139 0.0113964 0)
(1.0446 0.0153211 0)
(1.05145 0.018247 0)
(1.06221 0.0205036 0)
(1.07875 0.0225301 0)
(1.09887 0.0240609 0)
(1.07167 0.0225808 0)
(0.868397 0.0139013 0)
(0.490286 0.00410371 0)
(0.0971541 0.000160591 0)
(0.103551 -5.64663e-05 0)
(0.698522 -0.00466483 0)
(1.00324 -0.011497 0)
(1.11028 -0.0144087 0)
(1.10481 -0.012662 0)
(1.0839 -0.00942788 0)
(1.06902 -0.00572896 0)
(1.05846 -0.00151224 0)
(1.05086 0.00319716 0)
(1.04601 0.00831124 0)
(1.04487 0.0130168 0)
(1.0477 0.0166187 0)
(1.05431 0.0191987 0)
(1.06498 0.0211219 0)
(1.08167 0.0228883 0)
(1.09916 0.0240219 0)
(1.05864 0.0217605 0)
(0.838313 0.0128472 0)
(0.466782 0.0037766 0)
(0.0919497 0.000151742 0)
(0.101484 -3.28876e-05 0)
(0.681774 -0.00355909 0)
(0.988995 -0.00931591 0)
(1.10984 -0.0121439 0)
(1.11003 -0.0105086 0)
(1.08925 -0.00721662 0)
(1.07402 -0.0034274 0)
(1.06313 0.000860172 0)
(1.05515 0.00557367 0)
(1.0498 0.0105904 0)
(1.04809 0.0150617 0)
(1.05046 0.0183512 0)
(1.05679 0.0205853 0)
(1.06735 0.0221695 0)
(1.0841 0.0236632 0)
(1.09842 0.0243692 0)
(1.04391 0.0213199 0)
(0.80928 0.0121822 0)
(0.444951 0.00358786 0)
(0.087041 0.000148291 0)
(0.100151 -9.61001e-06 0)
(0.668561 -0.00253629 0)
(0.976588 -0.00720881 0)
(1.10926 -0.00976975 0)
(1.11521 -0.00816198 0)
(1.09478 -0.00477613 0)
(1.07916 -0.000831093 0)
(1.06789 0.00359064 0)
(1.05943 0.00837591 0)
(1.05346 0.0133484 0)
(1.05108 0.0176139 0)
(1.0529 0.0205957 0)
(1.05889 0.02247 0)
(1.0693 0.0237008 0)
(1.08606 0.0249239 0)
(1.09644 0.025169 0)
(1.02753 0.021251 0)
(0.780856 0.0118537 0)
(0.424083 0.00351197 0)
(0.0822618 0.000149123 0)
(0.0995337 1.55344e-05 0)
(0.658723 -0.00154294 0)
(0.966342 -0.00510532 0)
(1.10888 -0.00722273 0)
(1.12049 -0.0055478 0)
(1.10056 -0.00201681 0)
(1.08451 0.00215368 0)
(1.07279 0.00677785 0)
(1.06376 0.0117053 0)
(1.05703 0.0166849 0)
(1.05384 0.0207683 0)
(1.055 0.023447 0)
(1.06058 0.0249468 0)
(1.07081 0.0258139 0)
(1.08747 0.0267215 0)
(1.09318 0.0264216 0)
(1.00945 0.0215953 0)
(0.752545 0.0118342 0)
(0.403576 0.00353463 0)
(0.0774746 0.000153801 0)
(0.0996521 3.55124e-05 0)
(0.652234 -0.000535479 0)
(0.958563 -0.00293422 0)
(1.10904 -0.00443037 0)
(1.12604 -0.00258155 0)
(1.1067 0.00115724 0)
(1.09019 0.00562763 0)
(1.07791 0.0105379 0)
(1.06818 0.015682 0)
(1.06055 0.0207247 0)
(1.05638 0.0246469 0)
(1.05675 0.0270166 0)
(1.06184 0.0281389 0)
(1.07186 0.0286145 0)
(1.08812 0.02915 0)
(1.08832 0.0281989 0)
(0.989479 0.0223821 0)
(0.723791 0.0121081 0)
(0.382884 0.00364613 0)
(0.0725558 0.000161761 0)
(0.100568 7.1716e-05 0)
(0.649199 0.000507952 0)
(0.953573 -0.00061517 0)
(1.11011 -0.00130772 0)
(1.13206 0.000834056 0)
(1.11331 0.00486522 0)
(1.09628 0.00972988 0)
(1.08335 0.0150156 0)
(1.07277 0.0204563 0)
(1.06404 0.025618 0)
(1.05869 0.0293951 0)
(1.05813 0.0314364 0)
(1.06265 0.0321661 0)
(1.07238 0.0322253 0)
(1.08786 0.0323351 0)
(1.08162 0.0305952 0)
(0.967311 0.0236504 0)
(0.693971 0.0126675 0)
(0.361488 0.00383933 0)
(0.0673941 0.00017255 0)
(0.10246 0.000106161 0)
(0.649983 0.00168978 0)
(0.951729 0.00193846 0)
(1.11253 0.00224907 0)
(1.13876 0.00479285 0)
(1.12054 0.00925777 0)
(1.10292 0.0146191 0)
(1.0892 0.02038 0)
(1.07758 0.026203 0)
(1.06752 0.0315355 0)
(1.06077 0.0351736 0)
(1.0591 0.0368435 0)
(1.06293 0.0371687 0)
(1.07231 0.0367784 0)
(1.08641 0.0363983 0)
(1.07277 0.0336957 0)
(0.942511 0.0254335 0)
(0.66242 0.0135044 0)
(0.338905 0.0041055 0)
(0.0618948 0.000185364 0)
(0.105399 0.000155114 0)
(0.655034 0.00315968 0)
(0.953511 0.00488214 0)
(1.11679 0.00635646 0)
(1.14637 0.00946472 0)
(1.12856 0.0145147 0)
(1.11025 0.0204925 0)
(1.09556 0.0268457 0)
(1.08267 0.033141 0)
(1.07101 0.0386876 0)
(1.0626 0.0421662 0)
(1.05965 0.0434278 0)
(1.06263 0.0433158 0)
(1.07159 0.0424244 0)
(1.08363 0.041529 0)
(1.0614 0.0376148 0)
(0.914499 0.0277746 0)
(0.628419 0.0146106 0)
(0.314677 0.00443541 0)
(0.0559797 0.000199312 0)
(0.109672 0.000218672 0)
(0.664753 0.00486217 0)
(0.959368 0.00835212 0)
(1.12336 0.0111838 0)
(1.15516 0.0150543 0)
(1.13757 0.0208732 0)
(1.11843 0.0276172 0)
(1.10255 0.0346913 0)
(1.08809 0.0415428 0)
(1.0745 0.0473211 0)
(1.06413 0.0505918 0)
(1.05968 0.0513814 0)
(1.06169 0.050792 0)
(1.07015 0.0493278 0)
(1.07961 0.0478368 0)
(1.04697 0.0424645 0)
(0.882528 0.0306921 0)
(0.59119 0.0159604 0)
(0.288386 0.00481141 0)
(0.0495955 0.000213002 0)
(0.115619 0.000303957 0)
(0.679925 0.0069757 0)
(0.969938 0.0125451 0)
(1.13283 0.016973 0)
(1.16553 0.021827 0)
(1.14785 0.0286503 0)
(1.12766 0.0363346 0)
(1.11027 0.0442639 0)
(1.09387 0.0517351 0)
(1.07794 0.0577204 0)
(1.06529 0.0606955 0)
(1.05904 0.0608948 0)
(1.06004 0.0597788 0)
(1.06797 0.0577038 0)
(1.07405 0.0555169 0)
(1.02877 0.0483181 0)
(0.845689 0.034176 0)
(0.549943 0.0174997 0)
(0.259706 0.00520471 0)
(0.0427302 0.00022443 0)
(0.123747 0.000426812 0)
(0.701501 0.00974368 0)
(0.9861 0.0177757 0)
(1.14586 0.0240727 0)
(1.17795 0.0301788 0)
(1.15971 0.0383045 0)
(1.13813 0.0471241 0)
(1.11881 0.0560281 0)
(1.1 0.0641266 0)
(1.08127 0.0702102 0)
(1.06597 0.0727229 0)
(1.0577 0.0721957 0)
(1.05757 0.0704279 0)
(1.06494 0.0676691 0)
(1.06658 0.0645325 0)
(1.00589 0.0552258 0)
(0.802918 0.0381539 0)
(0.503941 0.0191292 0)
(0.228472 0.00557213 0)
(0.0354304 0.000231117 0)
(0.134785 0.000600831 0)
(0.730715 0.0135403 0)
(1.00902 0.0245181 0)
(1.16324 0.033037 0)
(1.19304 0.0407144 0)
(1.17351 0.0505214 0)
(1.15001 0.0606683 0)
(1.12817 0.0705969 0)
(1.10634 0.0792083 0)
(1.08431 0.085145 0)
(1.06602 0.0869264 0)
(1.05557 0.0854983 0)
(1.05424 0.0830049 0)
(1.0607 0.0793717 0)
(1.05643 0.0751324 0)
(0.977137 0.0631475 0)
(0.753032 0.0424553 0)
(0.452616 0.0206906 0)
(0.194776 0.00585471 0)
(0.0278197 0.000230263 0)
(0.150005 0.000881451 0)
(0.76962 0.0189751 0)
(1.04036 0.0335649 0)
(1.18591 0.0448151 0)
(1.2116 0.0546444 0)
(1.18957 0.06634 0)
(1.16336 0.0779183 0)
(1.1382 0.0887427 0)
(1.11266 0.09754 0)
(1.08678 0.102891 0)
(1.06521 0.103543 0)
(1.05247 0.100942 0)
(1.04994 0.0975974 0)
(1.05497 0.0931979 0)
(1.04273 0.0873549 0)
(0.940977 0.0718643 0)
(0.694871 0.0467659 0)
(0.395795 0.0219508 0)
(0.159102 0.00597887 0)
(0.0201173 0.00021889 0)
(0.171632 0.00136652 0)
(0.821509 0.0272259 0)
(1.08278 0.046505 0)
(1.215 0.061291 0)
(1.23415 0.0739052 0)
(1.20798 0.0873766 0)
(1.17791 0.10019 0)
(1.14846 0.111401 0)
(1.11848 0.119714 0)
(1.0883 0.123772 0)
(1.06325 0.122726 0)
(1.04823 0.118618 0)
(1.04451 0.114238 0)
(1.04774 0.108964 0)
(1.02421 0.101053 0)
(0.895512 0.0809314 0)
(0.62763 0.0506081 0)
(0.334085 0.0226333 0)
(0.122487 0.00587286 0)
(0.0126504 0.000194087 0)
(0.20312 0.00244587 0)
(0.892176 0.0410397 0)
(1.13981 0.0672196 0)
(1.25091 0.0860165 0)
(1.26048 0.101307 0)
(1.22812 0.116005 0)
(1.19286 0.129088 0)
(1.15815 0.139552 0)
(1.12312 0.146261 0)
(1.08833 0.148017 0)
(1.05982 0.144536 0)
(1.04267 0.138534 0)
(1.03786 0.132924 0)
(1.03843 0.126626 0)
(0.999108 0.115794 0)
(0.838547 0.089557 0)
(0.551552 0.0533713 0)
(0.269619 0.0225496 0)
(0.0868502 0.00553165 0)
(0.0059374 0.000157694 0)
(0.246008 0.00878852 3.72362e-20)
(0.985708 0.068629 3.27175e-20)
(1.20921 0.101955 -1.15518e-20)
(1.29062 0.122576 0)
(1.28776 0.140463 -3.06605e-34)
(1.24785 0.154555 4.51169e-21)
(1.20662 0.166123 -8.2901e-21)
(1.16614 0.174412 0)
(1.12573 0.178426 1.74078e-34)
(1.08613 0.17708 -1.06033e-20)
(1.054 0.170703 0)
(1.03467 0.162691 -1.27643e-20)
(1.02913 0.156173 -3.77779e-20)
(1.02568 0.149536 -1.78923e-20)
(0.962886 0.133987 -5.40407e-21)
(0.763362 0.098968 -3.21503e-21)
(0.461406 0.0552135 0)
(0.201034 0.0220307 2.24703e-21)
(0.0522359 0.0051888 2.65247e-21)
(-6.5277e-05 0.00010783 4.78432e-20)
(0.276064 0.0245254 2.44767e-20)
(1.06296 0.111771 5.51108e-22)
(1.26642 0.151472 2.95295e-21)
(1.32625 0.17229 0)
(1.31175 0.189928 -1.51289e-20)
(1.26484 0.20185 -1.74211e-20)
(1.21772 0.211101 -8.26019e-21)
(1.17145 0.216924 -2.99411e-20)
(1.1255 0.218197 0)
(1.08075 0.213822 4.49816e-20)
(1.04464 0.204691 4.49127e-20)
(1.02297 0.194748 1.33954e-20)
(1.0152 0.186677 4.92148e-20)
(1.00214 0.178014 6.95055e-20)
(0.904957 0.154819 0)
(0.66044 0.108111 9.82345e-20)
(0.355299 0.0562422 1.40786e-19)
(0.12987 0.0207085 1.56275e-19)
(0.0176061 0.00363921 -1.78605e-19)
(-0.00607753 -0.000513434 -3.36642e-21)
(0.277109 0.0406071 0)
(1.11186 0.167646 3.65955e-21)
(1.30506 0.212374 0)
(1.35398 0.232604 -1.7889e-20)
(1.33064 0.247089 0)
(1.27785 0.255119 -3.34121e-20)
(1.22524 0.260619 1.66695e-20)
(1.1735 0.262842 -5.948e-20)
(1.12231 0.260475 -1.59237e-21)
(1.07271 0.252398 2.30903e-20)
(1.0329 0.240019 9.87793e-20)
(1.00909 0.227797 -1.91789e-22)
(0.998878 0.217896 -3.57412e-20)
(0.976215 0.206036 -6.53479e-20)
(0.851904 0.174273 7.74627e-20)
(0.585046 0.115748 -1.37138e-19)
(0.291615 0.0570476 -1.80782e-20)
(0.0915587 0.0191125 0)
(-0.000906449 0.00128894 -1.56277e-23)
(-0.00953119 -0.00134986 0)
(0.270514 0.0544942 3.04675e-20)
(1.13824 0.226794 -1.75102e-20)
(1.32893 0.27775 -1.6908e-20)
(1.37242 0.298074 7.98158e-21)
(1.34299 0.308545 -1.36371e-20)
(1.28581 0.312007 6.93984e-20)
(1.22868 0.313052 3.44759e-20)
(1.17225 0.310997 0)
(1.1164 0.304402 -1.13976e-19)
(1.06238 0.292089 0)
(1.01918 0.276033 -5.15511e-20)
(0.993315 0.261168 -6.42946e-20)
(0.980656 0.249036 -3.88531e-20)
(0.94953 0.23318 -4.74096e-20)
(0.808397 0.192733 0)
(0.535023 0.124205 0)
(0.255769 0.0593411 -1.17456e-19)
(0.0697916 0.0177272 2.31704e-20)
(-0.0130265 -0.00151263 -1.35688e-20)
(-0.0123404 -0.00240632 -1.58743e-20)
(0.262573 0.0667191 8.33257e-22)
(1.14973 0.285721 0)
(1.34204 0.343986 2.76916e-20)
(1.38255 0.364893 2.07887e-20)
(1.34888 0.371433 3.25398e-20)
(1.28851 0.370286 0)
(1.22785 0.366744 3.29386e-20)
(1.16756 0.360193 6.50878e-20)
(1.10772 0.349108 5.78395e-20)
(1.04977 0.332267 1.08632e-19)
(1.00345 0.312226 0)
(0.975624 0.294418 -1.38372e-19)
(0.960648 0.279661 -8.37155e-20)
(0.922817 0.259494 -4.9582e-20)
(0.773464 0.211134 3.04454e-19)
(0.503487 0.134014 3.61659e-20)
(0.236909 0.0630964 1.6977e-19)
(0.0582109 0.0167549 -8.0194e-19)
(-0.0209728 -0.00450905 4.73861e-19)
(-0.0147468 -0.00362999 -5.71193e-19)
(0.254827 0.0776981 1.66705e-20)
(1.15159 0.342534 -6.29638e-22)
(1.34727 0.409146 -1.31358e-21)
(1.38597 0.431161 -1.57117e-20)
(1.34928 0.434009 -2.43182e-20)
(1.28653 0.428422 1.79984e-21)
(1.22308 0.420431 -3.57563e-20)
(1.15962 0.409436 6.66923e-20)
(1.09636 0.393847 -1.24401e-19)
(1.03493 0.372395 0)
(0.985719 0.348205 -6.23901e-20)
(0.955916 0.327239 -1.57383e-21)
(0.938686 0.309702 -9.16925e-20)
(0.896153 0.285275 0)
(0.744891 0.229919 -6.5885e-20)
(0.483817 0.145412 -1.56119e-19)
(0.2285 0.0684326 4.15302e-19)
(0.0544483 0.0167901 -4.09163e-19)
(-0.0245662 -0.00705945 5.79927e-19)
(-0.0163576 -0.00484211 -6.02617e-19)
(0.24816 0.0877765 -4.2504e-22)
(1.14737 0.396552 5.1821e-21)
(1.34678 0.472228 5.09046e-21)
(1.38411 0.495673 3.77668e-21)
(1.34523 0.495225 -1.17456e-20)
(1.2807 0.485481 0)
(1.21501 0.473289 -3.19841e-20)
(1.1489 0.458035 -6.94701e-20)
(1.08268 0.438072 -6.42922e-20)
(1.01811 0.412066 0)
(0.966176 0.383707 -6.43869e-20)
(0.934397 0.35951 -8.05121e-20)
(0.915048 0.339101 9.9501e-20)
(0.869417 0.310522 -6.0555e-20)
(0.720298 0.249283 -2.87691e-19)
(0.470719 0.158387 1.70429e-19)
(0.22682 0.0753085 5.04904e-20)
(0.0559829 0.0181006 0)
(-0.024394 -0.00866012 -5.61064e-19)
(-0.0170039 -0.00584727 -2.05862e-20)
(0.242705 0.0972689 5.67143e-21)
(1.13944 0.447588 -8.36221e-21)
(1.34209 0.532764 -4.08076e-21)
(1.37824 0.557712 1.71757e-20)
(1.33771 0.554423 -3.85375e-20)
(1.27182 0.540891 5.8181e-20)
(1.20432 0.524797 6.90209e-20)
(1.13596 0.50554 -1.10893e-19)
(1.06711 0.481417 4.06195e-20)
(0.999656 0.451005 -2.66814e-19)
(0.945147 0.418552 -7.33028e-20)
(0.911415 0.391137 0)
(0.89004 0.367864 1.08128e-19)
(0.8423 0.335386 1.2996e-19)
(0.697417 0.269083 1.55216e-19)
(0.460385 0.172388 -1.85559e-19)
(0.227343 0.0834872 -5.48039e-20)
(0.0603622 0.0209206 6.44067e-20)
(-0.0213323 -0.00903114 0)
(-0.0167012 -0.00649379 -4.48076e-20)
(0.238402 0.106344 -8.35464e-20)
(1.12947 0.495753 4.74533e-20)
(1.33447 0.590547 6.05428e-21)
(1.36937 0.616962 6.9219e-21)
(1.32753 0.611214 -1.44137e-20)
(1.2606 0.594264 -4.11567e-21)
(1.19161 0.574615 -7.59837e-20)
(1.12131 0.551666 -4.0271e-20)
(1.05011 0.523641 -1.11983e-19)
(0.979974 0.489035 3.26734e-22)
(0.922989 0.452613 -2.29088e-19)
(0.887312 0.422033 1.95507e-19)
(0.863979 0.395978 -1.19266e-19)
(0.814715 0.359808 1.43707e-19)
(0.675199 0.288579 0)
(0.450294 0.1869 -1.01225e-19)
(0.228227 0.0924231 3.24985e-22)
(0.0658294 0.0248929 -2.81972e-19)
(-0.0166796 -0.0083505 -4.13386e-20)
(-0.0157449 -0.00682224 0)
(0.235143 0.115149 0)
(1.11847 0.541275 5.41412e-20)
(1.32485 0.646016 2.45296e-20)
(1.35834 0.673287 -2.646e-21)
(1.31538 0.665397 -2.21211e-20)
(1.24765 0.645389 0)
(1.17743 0.622531 -3.27052e-20)
(1.10543 0.596217 -1.03957e-21)
(1.03209 0.564595 2.40303e-19)
(0.959411 0.526043 -3.64834e-20)
(0.900014 0.485799 -1.65773e-19)
(0.862449 0.452131 1.01441e-19)
(0.837296 0.423352 -2.23424e-21)
(0.786785 0.383562 1.5316e-19)
(0.652326 0.307645 9.40585e-20)
(0.438847 0.201398 -2.18766e-19)
(0.227636 0.101564 2.58779e-19)
(0.0707574 0.0295828 7.671e-20)
(-0.0114252 -0.00680133 3.15823e-19)
(-0.0143243 -0.00683096 -8.4366e-19)
(0.232852 0.123851 -2.6923e-20)
(1.10717 0.58434 3.6956e-20)
(1.31384 0.69848 -2.53957e-20)
(1.34577 0.726674 -5.27914e-21)
(1.30184 0.71688 0)
(1.23348 0.694143 -2.27047e-20)
(1.16223 0.668421 1.12089e-19)
(1.08874 0.639079 8.77239e-20)
(1.0134 0.60418 0)
(0.938267 0.561958 -5.289e-19)
(0.876497 0.518046 4.49856e-19)
(0.837085 0.481375 0)
(0.81018 0.449865 1.40069e-19)
(0.758539 0.406413 -2.21119e-21)
(0.62851 0.32576 -3.02723e-19)
(0.425585 0.21501 1.18124e-19)
(0.224657 0.110399 0)
(0.0740753 0.0344565 4.15052e-19)
(-0.00662801 -0.00481826 0)
(-0.0127594 -0.00662349 -4.00464e-19)
(0.231397 0.132509 3.20557e-20)
(1.09599 0.62521 4.73917e-20)
(1.30204 0.748018 -2.53026e-20)
(1.33215 0.777139 0)
(1.28738 0.765645 -1.31292e-20)
(1.21853 0.74049 0)
(1.14642 0.712222 -1.07602e-19)
(1.07157 0.680187 -3.93849e-20)
(0.994355 0.642347 4.19147e-20)
(0.916831 0.59675 -2.61959e-19)
(0.85267 0.549345 4.63143e-20)
(0.811426 0.509705 0)
(0.78285 0.475392 -2.99697e-19)
(0.729999 0.428115 2.10919e-21)
(0.603256 0.342598 0)
(0.410321 0.227196 9.064e-22)
(0.219042 0.118235 3.80584e-19)
(0.0750737 0.038832 -3.59322e-19)
(-0.00305306 -0.00290609 1.05968e-19)
(-0.0113168 -0.00631925 0)
(0.230452 0.141039 0)
(1.08521 0.663999 5.6706e-20)
(1.2897 0.794784 3.62931e-20)
(1.31791 0.824738 -2.56127e-21)
(1.27239 0.811721 2.18176e-22)
(1.20315 0.784431 -5.11641e-20)
(1.1303 0.753923 4.12987e-20)
(1.05422 0.719518 -4.78097e-20)
(0.97524 0.67907 1.88925e-19)
(0.895327 0.630415 -4.19696e-19)
(0.828712 0.579701 -4.23386e-21)
(0.785607 0.537073 -1.30593e-19)
(0.755392 0.499793 4.87486e-19)
(0.701309 0.448402 -2.55931e-21)
(0.577231 0.357663 -2.36178e-19)
(0.392995 0.237604 -4.18865e-19)
(0.211053 0.124537 0)
(0.0737834 0.0421474 0)
(-0.000938357 -0.00146616 1.1457e-19)
(-0.0101388 -0.00604394 -6.72103e-20)
(0.230231 0.149561 4.44962e-20)
(1.07506 0.700608 -1.28331e-19)
(1.27705 0.838926 -3.88906e-20)
(1.30338 0.869531 0)
(1.25716 0.85517 -1.50007e-21)
(1.18762 0.825997 -4.13992e-20)
(1.11415 0.793536 9.61993e-20)
(1.03696 0.757069 1.84768e-19)
(0.956277 0.714349 2.44843e-19)
(0.87397 0.662971 -3.42737e-19)
(0.804793 0.609148 -3.8887e-19)
(0.75973 0.563482 3.4977e-19)
(0.727857 0.522978 0)
(0.672434 0.46699 -1.07707e-19)
(0.550447 0.370622 -2.55493e-19)
(0.374078 0.245697 -3.01691e-19)
(0.200865 0.128993 -3.55801e-19)
(0.0705988 0.0440658 1.05076e-19)
(-0.000118931 -0.000692646 -6.17535e-20)
(-0.0092517 -0.00585783 3.16119e-22)
(0.230176 0.157999 0)
(1.06565 0.735336 0)
(1.26436 0.880538 2.46106e-21)
(1.2888 0.911634 0)
(1.24192 0.896081 -1.442e-20)
(1.17217 0.865251 2.34835e-20)
(1.09819 0.831094 0)
(1.01998 0.792858 2.13e-20)
(0.93767 0.748195 4.07909e-19)
(0.852955 0.694449 -7.89651e-19)
(0.781055 0.637744 0)
(0.733842 0.588983 -2.25799e-19)
(0.700177 0.544887 -3.00352e-21)
(0.64332 0.483617 -2.22893e-21)
(0.523138 0.381071 2.74029e-19)
(0.353725 0.251156 7.75538e-24)
(0.189031 0.131218 -7.67305e-19)
(0.0658411 0.0445799 2.26209e-19)
(-0.000366596 -0.00058855 6.68854e-20)
(-0.00861863 -0.0057559 0)
(0.230244 0.166306 -1.76725e-19)
(1.05674 0.768415 -8.5934e-20)
(1.25176 0.919707 -1.12919e-19)
(1.27433 0.951188 1.13229e-19)
(1.22687 0.934533 -4.06679e-20)
(1.15698 0.902259 0)
(1.08257 0.866643 5.57783e-20)
(1.00345 0.826911 -4.82157e-20)
(0.919584 0.780628 3.93076e-21)
(0.832453 0.724887 5.85751e-20)
(0.757628 0.665568 5.05105e-19)
(0.70797 0.613689 -7.91963e-20)
(0.672263 0.565526 -3.01791e-19)
(0.613837 0.498064 -1.25836e-19)
(0.495328 0.388638 1.48694e-19)
(0.332476 0.253669 1.61793e-22)
(0.176143 0.131109 2.06826e-19)
(0.0600689 0.0436821 -4.87206e-19)
(-0.00124814 -0.00100499 5.75921e-19)
(-0.0081407 -0.00570364 8.39518e-20)
(0.230303 0.174372 6.69192e-20)
(1.04834 0.799923 -4.82747e-20)
(1.23937 0.956538 6.25729e-21)
(1.26011 0.988326 7.19833e-20)
(1.21215 0.970638 1.54132e-20)
(1.14218 0.937096 -3.67779e-20)
(1.06744 0.900237 1.4461e-20)
(0.987493 0.859253 -2.00101e-19)
(0.902157 0.811653 -4.48897e-19)
(0.812606 0.754301 -4.71108e-19)
(0.734656 0.692715 0)
(0.682139 0.637749 -3.49533e-19)
(0.643983 0.584969 4.3607e-19)
(0.58373 0.510146 0)
(0.467043 0.392888 -3.1892e-19)
(0.311141 0.252783 1.89295e-19)
(0.163247 0.128479 -2.2258e-19)
(0.0543491 0.0416178 -2.62292e-19)
(-0.00231762 -0.00172214 -4.63992e-19)
(-0.00779728 -0.00569948 -3.61852e-19)
(0.230702 0.182314 -7.55486e-20)
(1.04028 0.829857 5.16531e-20)
(1.22725 0.991108 1.17815e-19)
(1.24622 1.02314 1.04859e-19)
(1.19786 1.00449 -2.85342e-20)
(1.12788 0.969851 -1.40309e-20)
(1.05288 0.931928 4.97935e-20)
(0.972208 0.889928 -2.03962e-19)
(0.885486 0.841297 -2.66014e-19)
(0.793546 0.782716 4.9341e-19)
(0.712267 0.719272 1.11297e-18)
(0.656406 0.661334 0)
(0.6152 0.60338 0)
(0.552631 0.51981 -1.45032e-19)
(0.438002 0.39331 0)
(0.290108 0.247498 4.06826e-19)
(0.152051 0.122435 4.78541e-19)
(0.0507799 0.0382035 0)
(-0.00237927 -0.00252427 0)
(-0.0075809 -0.00574026 3.89051e-19)
(0.230815 0.189841 8.57539e-20)
(1.0326 0.85822 6.92157e-20)
(1.21547 1.02355 8.55344e-20)
(1.23274 1.05576 -1.00549e-19)
(1.18407 1.03621 -3.75265e-20)
(1.11414 1.0006 5.83733e-21)
(1.03898 0.96178 -6.72729e-20)
(0.957668 0.918964 -7.43586e-22)
(0.86966 0.869567 -5.12353e-21)
(0.775374 0.810133 -4.30648e-21)
(0.690608 0.745305 5.73997e-19)
(0.630874 0.684616 0)
(0.585822 0.621025 4.43659e-19)
(0.520076 0.527206 3.10263e-19)
(0.407426 0.389588 7.45637e-19)
(0.269001 0.236282 2.19483e-19)
(0.144269 0.109906 -2.57511e-19)
(0.0543322 0.029788 -1.51182e-19)
(0.00530641 -0.00471863 0)
(-0.00523751 -0.00506192 4.18231e-19)
(0.231271 0.197392 -1.93071e-19)
(1.02526 0.885101 0)
(1.20402 1.0539 1.00414e-19)
(1.21971 1.08625 -8.50763e-20)
(1.17084 1.06588 5.09704e-20)
(1.101 1.02944 9.04674e-21)
(1.02576 0.989848 1.23198e-19)
(0.943915 0.946397 -1.70467e-20)
(0.854728 0.896473 0)
(0.758178 0.836534 -5.44383e-19)
(0.669822 0.770841 -1.24935e-18)
(0.605693 0.707764 5.17446e-20)
(0.555862 0.638243 6.14533e-19)
(0.485691 0.532772 0)
(0.373994 0.382041 5.04315e-19)
(0.245418 0.217683 0)
(0.137638 0.0840198 0)
(0.070237 0.000795175 -1.63511e-19)
(0.0435578 -0.0183762 0)
(0.0261638 0.0095025 1.12166e-19)
(0.231389 0.204372 -2.15539e-19)
(1.0182 0.910852 0)
(1.1929 1.08239 1.67047e-19)
(1.20708 1.11485 0)
(1.15813 1.09377 -3.09553e-20)
(1.08841 1.05664 0)
(1.01319 1.01645 4.71966e-21)
(0.930851 0.972563 2.79439e-20)
(0.840566 0.922372 3.34937e-20)
(0.741787 0.862298 -5.96703e-19)
(0.649714 0.796314 3.73217e-20)
(0.580607 0.731439 4.18439e-19)
(0.524833 0.655889 6.00523e-19)
(0.448492 0.537132 8.11167e-20)
(0.335544 0.371979 3.96355e-19)
(0.213826 0.192636 0)
(0.119383 0.0397016 5.43066e-19)
(0.065644 -0.0407025 -3.16787e-19)
(0.0409986 0.0395495 3.68605e-19)
(-0.0690858 0.438949 -4.34151e-19)
(0.231519 0.211173 1.78407e-19)
(1.01118 0.935239 2.75036e-19)
(1.18202 1.10932 0)
(1.19472 1.14201 4.87251e-21)
(1.14574 1.12046 9.14928e-20)
(1.0761 1.0829 -5.39472e-20)
(1.00093 1.04236 3.82193e-20)
(0.918058 0.998388 0)
(0.826631 0.94834 2.18573e-19)
(0.725519 0.888715 -3.07738e-20)
(0.629349 0.823193 0)
(0.554313 0.7573 0)
(0.490649 0.675389 5.39604e-19)
(0.405945 0.540759 -2.51449e-19)
(0.288681 0.361127 -4.03112e-19)
(0.168925 0.164127 0)
(0.0704665 0.0528007 2.74415e-19)
(0.00254566 0.4359 -3.16165e-19)
(0.0322605 1.89652 -1.72057e-19)
(0.0613635 2.81479 -2.20813e-19)
(0.231505 0.21718 -1.33793e-19)
(1.00439 0.958456 -3.52688e-19)
(1.17137 1.13468 9.90487e-20)
(1.18262 1.16759 8.23304e-20)
(1.13368 1.14572 0)
(1.06414 1.10791 -4.8294e-20)
(0.98918 1.06729 4.51665e-20)
(0.905733 1.02345 -1.31831e-20)
(0.813201 0.973867 3.28766e-20)
(0.709765 0.915187 5.67994e-19)
(0.609342 0.85086 6.33311e-19)
(0.527729 0.78502 4.71031e-19)
(0.4541 0.697005 5.44651e-19)
(0.35949 0.542794 -5.93677e-19)
(0.238476 0.353245 -6.10988e-19)
(0.114839 0.210689 0)
(0.040924 0.835568 0)
(0.0982536 2.555 1.50879e-19)
(0.0996224 3.20434 0)
(0.103062 3.38916 3.57201e-19)
(0.234025 0.222759 0)
(0.998442 0.980707 0)
(1.16075 1.15833 0)
(1.17058 1.19145 2.47886e-20)
(1.12162 1.1693 8.34276e-20)
(1.05233 1.13156 -4.79484e-20)
(0.977838 1.09112 2.64071e-20)
(0.893836 1.04763 -1.26522e-20)
(0.800245 0.99882 2.69527e-19)
(0.694564 0.941582 -8.68327e-21)
(0.589858 0.879238 1.25148e-18)
(0.501163 0.814478 -5.46363e-20)
(0.415363 0.722014 6.60003e-20)
(0.311636 0.540962 8.62203e-20)
(0.174928 0.364564 -5.98304e-21)
(0.0949911 0.962051 1.8434e-21)
(0.136369 2.72755 -8.05152e-19)
(0.144143 3.29351 -3.00089e-19)
(0.133839 3.42539 1.53283e-19)
(0.121991 3.44755 -1.70014e-19)
(0.152941 0.180281 7.90917e-20)
(0.98708 1.00473 0)
(1.14975 1.18045 -1.97549e-19)
(1.15911 1.21408 -2.22645e-19)
(1.11046 1.19203 1.95567e-19)
(1.0416 1.15454 5.53284e-20)
(0.966839 1.11395 -2.35019e-20)
(0.88248 1.07108 1.29585e-19)
(0.787938 1.02338 -2.18678e-19)
(0.680219 0.968085 0)
(0.571335 0.908555 6.14238e-19)
(0.475181 0.845588 -3.85206e-19)
(0.376705 0.753328 0)
(0.256589 0.535733 8.0838e-20)
(0.137928 0.72056 1.92527e-19)
(0.152158 2.50286 -2.22058e-19)
(0.208125 3.32174 2.48017e-19)
(0.188968 3.43694 1.32074e-19)
(0.157519 3.45875 1.47062e-19)
(0.136252 3.46924 2.30721e-19)
(0.276654 0.260279 -1.44581e-19)
(0.971391 1.01412 0)
(1.13132 1.20562 2.14932e-19)
(1.1438 1.24445 2.42742e-19)
(1.09288 1.225 -2.15905e-19)
(1.02324 1.18788 -7.80896e-20)
(0.947552 1.14893 2.91951e-21)
(0.862657 1.10728 1.03847e-20)
(0.766742 1.06176 2.04426e-19)
(0.656143 1.01042 4.85462e-19)
(0.541696 0.957406 3.43054e-20)
(0.433862 0.898953 3.42665e-19)
(0.304815 0.786715 6.21506e-20)
(0.2098 0.900134 -7.95322e-20)
(0.226889 2.35046 -1.78924e-19)
(0.288576 3.32275 1.67922e-19)
(0.271422 3.46431 -1.83422e-19)
(0.236297 3.48679 -1.05066e-19)
(0.199558 3.5149 -8.47435e-20)
(0.148227 3.50958 -9.96189e-21)
(0.264418 0.257084 0)
(0.968778 1.03653 6.19833e-20)
(1.12278 1.22897 -4.42818e-20)
(1.13299 1.26804 -2.88959e-20)
(1.0819 1.24816 -1.48982e-19)
(1.0122 1.21126 8.0675e-20)
(0.936183 1.17245 6.02699e-21)
(0.851065 1.13161 8.99984e-21)
(0.754574 1.08758 -2.10529e-19)
(0.642578 1.03915 -1.35112e-20)
(0.525106 0.991094 -1.10683e-18)
(0.411633 0.936926 4.91006e-20)
(0.284793 0.851275 -5.84915e-20)
(0.253201 1.47042 -7.31633e-20)
(0.329271 3.09915 1.82087e-20)
(0.348045 3.46093 4.67376e-23)
(0.30793 3.51761 2.54394e-19)
(0.270721 3.54525 1.19628e-19)
(0.222218 3.56924 -2.12127e-20)
(0.163366 3.56575 -4.30181e-20)
(0.248264 0.255576 1.56866e-19)
(0.964574 1.06161 4.22763e-19)
(1.11384 1.25442 -1.26872e-19)
(1.12161 1.29304 -1.0904e-19)
(1.07028 1.27267 0)
(1.00073 1.23583 1.43151e-19)
(0.924682 1.19725 2.35955e-20)
(0.839622 1.1572 7.49723e-21)
(0.742881 1.11478 -2.37258e-20)
(0.630025 1.06955 -4.32709e-19)
(0.510385 1.02685 -5.07881e-19)
(0.392926 0.976128 -3.98721e-19)
(0.285887 0.981127 -4.42569e-19)
(0.324147 2.19909 4.56793e-19)
(0.41749 3.37016 3.74441e-19)
(0.393096 3.51788 0)
(0.347895 3.56404 0)
(0.309887 3.60578 -1.5325e-20)
(0.259237 3.66641 0)
(0.176245 3.64297 -5.42709e-21)
(0.237636 0.257447 -2.34688e-19)
(0.958453 1.08776 -3.58664e-19)
(1.10346 1.28104 0)
(1.10883 1.31875 5.84485e-21)
(1.05737 1.29777 -1.60326e-19)
(0.988113 1.26086 2.30607e-19)
(0.91238 1.22258 2.37763e-20)
(0.827587 1.18323 2.54468e-21)
(0.730836 1.14235 -1.41692e-19)
(0.617538 1.10033 2.10351e-20)
(0.496679 1.0631 0)
(0.373784 1.01662 0)
(0.307217 1.24047 -4.01113e-19)
(0.409288 2.8799 1.62042e-19)
(0.490176 3.47691 2.01144e-19)
(0.440991 3.55027 0)