/*--------------------------------*- C++ -*----------------------------------*\
  =========                 |
  \\      /  F ield         | OpenFOAM: The Open Source CFD Toolbox
   \\    /   O peration     | Website:  https://openfoam.org
    \\  /    A nd           | Version:  9
     \\/     M anipulation  |
\*---------------------------------------------------------------------------*/
FoamFile
{
    format      ascii;
    class       volScalarField;
    location    "61";
    object      p;
}
// * * * * * * * * * * * * * * * * * * * * * * * * * * * * * * * * * * * * * //

dimensions      [0 2 -2 0 0 0 0];

internalField   nonuniform List<scalar> 
8800
(
0.864918
0.817132
0.778444
0.74945
0.728589
0.713763
0.703175
0.695705
0.690901
0.688866
0.690159
0.694369
0.70103
0.710356
0.723143
0.740883
0.765664
0.799607
0.842158
0.90086
0.696165
0.703844
0.711321
0.71463
0.713129
0.708055
0.701574
0.695506
0.690797
0.687973
0.687718
0.690248
0.694755
0.700714
0.707492
0.713778
0.717423
0.716689
0.711272
0.702584
0.674565
0.680725
0.684853
0.687799
0.689852
0.690461
0.689362
0.687269
0.68527
0.684388
0.685377
0.687781
0.690596
0.692789
0.693404
0.692211
0.689873
0.686483
0.681926
0.678165
0.66875
0.671401
0.674154
0.676559
0.678197
0.679363
0.680113
0.680243
0.679967
0.679944
0.680726
0.68192
0.682778
0.682855
0.682255
0.68117
0.679359
0.676792
0.674391
0.672887
0.663363
0.664788
0.666568
0.668602
0.670389
0.671736
0.672733
0.673545
0.674181
0.674776
0.67546
0.675983
0.676103
0.67583
0.675143
0.673902
0.672211
0.670367
0.669062
0.66823
0.658278
0.659199
0.660441
0.662009
0.663645
0.665176
0.66647
0.667553
0.668542
0.669469
0.670197
0.670556
0.670537
0.670114
0.669245
0.668054
0.666733
0.665477
0.664657
0.664105
0.653361
0.654031
0.654994
0.656298
0.657711
0.659175
0.660625
0.661964
0.66319
0.664336
0.665202
0.665605
0.665548
0.665058
0.664266
0.663329
0.662324
0.661406
0.660823
0.660417
0.648566
0.649082
0.649866
0.650998
0.652279
0.653659
0.655117
0.656607
0.658065
0.659446
0.660502
0.661015
0.66102
0.660658
0.660072
0.659359
0.658595
0.657917
0.657485
0.657168
0.643819
0.64423
0.644886
0.645894
0.647103
0.648437
0.649894
0.65147
0.653125
0.654772
0.656075
0.65678
0.65698
0.656837
0.656474
0.655972
0.655412
0.654927
0.654607
0.654349
0.639035
0.63937
0.639937
0.640866
0.642027
0.643346
0.644839
0.646514
0.648357
0.650294
0.651917
0.652918
0.653395
0.653505
0.653372
0.653094
0.652729
0.652403
0.652167
0.651951
0.634126
0.634403
0.63491
0.635792
0.636935
0.638279
0.639846
0.641661
0.643734
0.646008
0.648033
0.649414
0.650224
0.650623
0.650742
0.650689
0.650517
0.650332
0.650164
0.649977
0.629003
0.629236
0.629703
0.63057
0.631734
0.633146
0.634829
0.636839
0.639206
0.641897
0.644415
0.646254
0.647453
0.648185
0.648584
0.648764
0.648786
0.648731
0.648618
0.648451
0.623573
0.623771
0.624219
0.625099
0.626327
0.627851
0.629706
0.631977
0.634719
0.637934
0.64105
0.643432
0.645086
0.646196
0.646912
0.647338
0.647572
0.647638
0.647572
0.647419
0.617737
0.617906
0.618351
0.619275
0.620607
0.622294
0.624387
0.626999
0.630217
0.63408
0.637921
0.640952
0.643143
0.644688
0.645763
0.646489
0.64693
0.647112
0.647086
0.646942
0.611375
0.611521
0.611978
0.612974
0.614457
0.616368
0.618775
0.621823
0.625641
0.6303
0.635018
0.638825
0.641651
0.643709
0.645192
0.64624
0.64692
0.647226
0.647237
0.647097
0.60435
0.604471
0.604956
0.606056
0.607741
0.609944
0.612756
0.616358
0.620922
0.626554
0.632332
0.637066
0.640643
0.643306
0.645271
0.646695
0.647639
0.648069
0.648114
0.647974
0.59648
0.59658
0.597108
0.598349
0.600294
0.602869
0.606196
0.610494
0.615982
0.622804
0.629861
0.635699
0.640163
0.643537
0.64608
0.647939
0.64918
0.649743
0.64982
0.649676
0.587541
0.587642
0.588225
0.589621
0.591899
0.594957
0.598939
0.604112
0.610746
0.619021
0.627612
0.634762
0.640273
0.644481
0.647707
0.650077
0.651651
0.652354
0.65246
0.652309
0.57722
0.577301
0.577975
0.579597
0.582308
0.585985
0.590796
0.597068
0.605125
0.615174
0.625602
0.634295
0.641038
0.646228
0.650239
0.653208
0.65516
0.656011
0.656143
0.655981
0.565146
0.565213
0.565986
0.56792
0.571189
0.575662
0.581533
0.589199
0.599028
0.611236
0.62385
0.634355
0.642526
0.648861
0.65378
0.657449
0.659813
0.660812
0.660964
0.660787
0.550767
0.550823
0.551739
0.554088
0.558094
0.563615
0.570868
0.58032
0.592367
0.6072
0.622399
0.635005
0.644808
0.652459
0.658432
0.662883
0.665685
0.666827
0.66699
0.666796
0.533321
0.533365
0.534493
0.537426
0.542443
0.549381
0.558476
0.570253
0.585092
0.603103
0.621319
0.636321
0.647974
0.657101
0.664247
0.669568
0.672818
0.674081
0.674243
0.674029
0.51165
0.511692
0.513167
0.516981
0.523454
0.532385
0.544005
0.558854
0.577213
0.599039
0.620724
0.638398
0.652092
0.662854
0.671261
0.677516
0.681183
0.682528
0.68267
0.682434
0.484017
0.484079
0.486142
0.491377
0.500108
0.51197
0.527149
0.546075
0.568829
0.59516
0.620755
0.641339
0.657226
0.669731
0.679497
0.68666
0.690661
0.69202
0.692121
0.691865
0.447395
0.447557
0.450827
0.458679
0.471219
0.487553
0.507805
0.532087
0.560223
0.591747
0.621622
0.645275
0.663433
0.677733
0.68888
0.696837
0.701015
0.702295
0.702332
0.702059
0.39598
0.396958
0.403458
0.416686
0.435846
0.4591
0.486344
0.517393
0.551869
0.589161
0.623551
0.650328
0.670758
0.686787
0.699238
0.707764
0.71189
0.712987
0.712948
0.712665
0.320862
0.328128
0.343161
0.36645
0.395483
0.428005
0.463797
0.502644
0.544161
0.58771
0.62694
0.65707
0.679946
0.697875
0.711582
0.720488
0.724423
0.725321
0.725237
0.72499
0.240118
0.257314
0.281675
0.315679
0.354964
0.396886
0.441294
0.488125
0.537077
0.587572
0.632558
0.666863
0.692749
0.712955
0.72814
0.73717
0.740583
0.741206
0.741145
0.740987
0.172824
0.193077
0.225148
0.268254
0.316594
0.367371
0.420137
0.474812
0.531068
0.588318
0.638787
0.676995
0.705688
0.727835
0.743869
0.752666
0.75571
0.756264
0.75626
0.75615
0.117712
0.139621
0.177202
0.226742
0.282244
0.340491
0.400659
0.462532
0.525644
0.589329
0.645029
0.68691
0.718154
0.741985
0.758883
0.767778
0.770707
0.771312
0.77135
0.771265
0.0718427
0.094928
0.136294
0.190944
0.252202
0.316616
0.383137
0.451414
0.520825
0.590551
0.651217
0.696591
0.730272
0.755773
0.773628
0.782886
0.786049
0.786544
0.786602
0.786541
0.0329475
0.0566951
0.100925
0.159619
0.225717
0.295383
0.367436
0.441418
0.516571
0.591923
0.657297
0.706024
0.742082
0.769236
0.7881
0.797979
0.801299
0.80183
0.801894
0.801863
-0.000999909
0.0231794
0.0696728
0.131703
0.201893
0.276128
0.353082
0.432207
0.512644
0.593278
0.663136
0.715089
0.753435
0.782223
0.802053
0.812557
0.81617
0.81677
0.816849
0.816841
-0.0314972
-0.00693913
0.0413975
0.106278
0.179995
0.258235
0.339587
0.423414
0.508768
0.594398
0.668545
0.723595
0.764125
0.794425
0.81524
0.826295
0.830225
0.830958
0.831035
0.831034
-0.0595118
-0.0346136
0.015299
0.0826376
0.159458
0.24125
0.326561
0.4147
0.504653
0.595044
0.67334
0.731381
0.77399
0.8057
0.827407
0.838978
0.843176
0.844044
0.844117
0.844115
-0.0858467
-0.0605617
-0.0092021
0.0602591
0.139849
0.22481
0.3137
0.405805
0.500078
0.595048
0.677406
0.738368
0.782975
0.816009
0.838455
0.850413
0.854811
0.855748
0.855805
0.855784
-0.110879
-0.0851992
-0.0325984
0.038802
0.120855
0.208657
0.300791
0.396556
0.494895
0.594288
0.680664
0.744544
0.791099
0.825338
0.848355
0.860611
0.865108
0.866081
0.866117
0.866073
-0.135035
-0.108854
-0.055223
0.0180193
0.102263
0.192615
0.287698
0.386829
0.488988
0.592662
0.68306
0.749918
0.798425
0.833804
0.857331
0.869679
0.874217
0.87516
0.875163
0.875098
-0.15845
-0.131836
-0.0771192
-0.00225943
0.0839415
0.176581
0.274328
0.376549
0.482285
0.590104
0.684564
0.754518
0.805067
0.841559
0.865449
0.877776
0.882241
0.883173
0.883156
0.883068
-0.181259
-0.15416
-0.0984183
-0.0221286
0.0658268
0.160506
0.260645
0.365681
0.47475
0.586561
0.685127
0.758371
0.811128
0.848783
0.872938
0.885106
0.889404
0.890254
0.890205
0.890095
-0.203599
-0.175953
-0.119222
-0.0416253
0.0478832
0.144382
0.246659
0.354236
0.466372
0.581991
0.684702
0.761478
0.816727
0.855649
0.879959
0.891792
0.895794
0.896512
0.896416
0.896288
-0.2255
-0.197215
-0.139572
-0.0607565
0.0301351
0.128228
0.232402
0.342245
0.457168
0.576365
0.683225
0.763806
0.821929
0.86234
0.886736
0.897989
0.901499
0.902012
0.901872
0.901735
-0.246809
-0.21792
-0.159403
-0.0795038
0.012607
0.112104
0.217928
0.329773
0.447189
0.569697
0.680625
0.765286
0.826738
0.869045
0.893575
0.90395
0.906652
0.906837
0.906648
0.906516
-0.267513
-0.238047
-0.178708
-0.0978253
-0.00465028
0.0960606
0.203321
0.316893
0.436505
0.562006
0.676844
0.765798
0.831086
0.875886
0.9009
0.9102
0.911578
0.911088
0.91081
0.910736
-0.287678
-0.257563
-0.197467
-0.115698
-0.0215781
0.080177
0.188662
0.303701
0.425202
0.553349
0.671831
0.76519
0.8348
0.882815
0.909107
0.917637
0.91716
0.915175
0.914526
0.914745
-0.30714
-0.276451
-0.215627
-0.133064
-0.0381223
0.0645324
0.174043
0.290306
0.41339
0.543813
0.665568
0.763282
0.837605
0.889507
0.918224
0.927289
0.925373
0.920983
0.918509
0.918205
-0.325992
-0.294702
-0.233207
-0.149955
-0.0543161
0.0490845
0.159409
0.276651
0.401005
0.533326
0.657921
0.759795
0.839204
0.895467
0.927646
0.939493
0.938658
0.931932
0.924118
0.91021
-0.344164
-0.312301
-0.250324
-0.166572
-0.0704386
0.0335093
0.144355
0.26227
0.387528
0.521274
0.64827
0.75398
0.839075
0.900029
0.935741
0.952197
0.953014
0.940201
0.920173
0.908896
-0.361483
-0.329389
-0.266786
-0.18272
-0.0861388
0.0181448
0.129103
0.247478
0.373255
0.507902
0.636656
0.745329
0.836345
0.902011
0.938372
0.954684
0.957934
0.934156
0.866572
0.836292
-0.377286
-0.347222
-0.282274
-0.197918
-0.100624
0.00348837
0.113967
0.232503
0.3584
0.493326
0.622996
0.733509
0.829529
0.900691
0.93044
0.941543
0.929339
0.874409
0.805238
0.762718
-0.432462
-0.362951
-0.2963
-0.213304
-0.115526
-0.0119267
0.0988792
0.21706
0.342587
0.477079
0.606657
0.717823
0.814648
0.892351
0.895761
0.897086
0.84562
0.774188
0.697111
0.654234
-0.394004
-0.378043
-0.317243
-0.233182
-0.137594
-0.0340409
0.075733
0.193256
0.317783
0.450851
0.57852
0.688133
0.77734
0.860147
0.845097
0.729498
0.62284
0.548674
0.474717
0.504694
-0.424651
-0.395461
-0.33377
-0.250537
-0.15497
-0.0515361
0.0584991
0.175377
0.298825
0.430074
0.554938
0.660323
0.739874
0.783983
0.734048
0.582984
0.453728
0.36141
0.262169
0.311734
-0.448253
-0.416132
-0.35325
-0.269876
-0.174189
-0.0708609
0.0390839
0.155119
0.277153
0.405977
0.527072
0.626204
0.696818
0.706201
0.597904
0.423504
0.269608
0.149933
0.0183093
0.0509007
-0.471332
-0.437692
-0.373639
-0.289345
-0.193583
-0.0904119
0.0190011
0.134062
0.254484
0.380497
0.496844
0.588119
0.643295
0.620895
0.460746
0.263207
0.0720074
-0.0965476
-0.285396
-0.304064
-0.493816
-0.459731
-0.394793
-0.309722
-0.213826
-0.110884
-0.00212896
0.111832
0.23038
0.353177
0.464058
0.547341
0.582799
0.523912
0.330206
0.118682
-0.0992721
-0.289034
-0.531285
-0.828474
-0.516593
-0.482503
-0.417029
-0.331476
-0.235399
-0.13263
-0.024464
0.0883608
0.204925
0.324237
0.429352
0.503971
0.518195
0.408129
0.216609
0.0057804
-0.199215
-0.372068
-0.441893
-0.520924
-0.540615
-0.50646
-0.440691
-0.354914
-0.25879
-0.15629
-0.0488052
0.0627097
0.17697
0.292266
0.391187
0.454603
0.443706
0.299989
0.115654
-0.0761419
-0.239754
-0.333218
-0.357482
-0.373366
-0.566186
-0.531904
-0.465947
-0.380111
-0.284129
-0.182071
-0.0755086
0.0343937
0.145933
0.256561
0.348773
0.397932
0.369266
0.199584
0.0242102
-0.142511
-0.269762
-0.309157
-0.322046
-0.32336
-0.593506
-0.55901
-0.492862
-0.407063
-0.311364
-0.209977
-0.104591
0.00336555
0.111751
0.217132
0.301749
0.336475
0.288021
0.106874
-0.059384
-0.208629
-0.285438
-0.302615
-0.303923
-0.303721
-0.622635
-0.587839
-0.521459
-0.435767
-0.340511
-0.239995
-0.136056
-0.0303874
0.0744384
0.174061
0.250178
0.273001
0.188409
0.0221465
-0.135609
-0.258631
-0.295636
-0.294037
-0.293135
-0.292522
-0.653287
-0.61821
-0.551634
-0.466135
-0.371482
-0.272071
-0.169869
-0.0668362
0.0340379
0.127466
0.194951
0.200773
0.0975879
-0.0565788
-0.196002
-0.272068
-0.282684
-0.28556
-0.286326
-0.28606
-0.68491
-0.649678
-0.583129
-0.497936
-0.404089
-0.306046
-0.205879
-0.105847
-0.00926545
0.0777092
0.136553
0.127265
0.0158068
-0.123475
-0.240021
-0.271842
-0.280374
-0.281961
-0.281838
-0.281591
-0.717035
-0.68169
-0.615495
-0.530776
-0.437988
-0.341599
-0.243807
-0.147131
-0.0551901
0.0255007
0.0740612
0.0577052
-0.0597441
-0.178511
-0.270738
-0.28684
-0.279311
-0.278643
-0.278692
-0.2785
-0.748765
-0.713517
-0.647852
-0.564059
-0.472635
-0.378259
-0.283207
-0.190214
-0.103269
-0.0285035
0.0103738
-0.00548523
-0.126304
-0.222986
-0.273487
-0.283932
-0.280578
-0.278493
-0.277599
-0.277278
-0.778524
-0.743979
-0.679228
-0.59686
-0.507263
-0.415327
-0.32343
-0.234429
-0.152702
-0.0837498
-0.0481798
-0.0745478
-0.179423
-0.268539
-0.269862
-0.28259
-0.282479
-0.27841
-0.276693
-0.275963
-0.804709
-0.771248
-0.708488
-0.62799
-0.540833
-0.451875
-0.363616
-0.278946
-0.202391
-0.139393
-0.103319
-0.139127
-0.219309
-0.298649
-0.324697
-0.30252
-0.287697
-0.281288
-0.278923
-0.277765
-0.825183
-0.793453
-0.733568
-0.656022
-0.572056
-0.486755
-0.402689
-0.322753
-0.25128
-0.194138
-0.159768
-0.188837
-0.235856
-0.311654
-0.361076
-0.318788
-0.297924
-0.293481
-0.291308
-0.289723
-0.837698
-0.808681
-0.752547
-0.679072
-0.599419
-0.518636
-0.439442
-0.364659
-0.298394
-0.246728
-0.213599
-0.229022
-0.217333
-0.2302
-0.243781
-0.284409
-0.310545
-0.317671
-0.317088
-0.317344
-0.839588
-0.814644
-0.763448
-0.695299
-0.621204
-0.546076
-0.472515
-0.403407
-0.342679
-0.296462
-0.259015
-0.275318
-0.231529
-0.120119
-0.194804
-0.280642
-0.319677
-0.330584
-0.33466
-0.336863
-0.828651
-0.808572
-0.764068
-0.703069
-0.635887
-0.567533
-0.500485
-0.437616
-0.382982
-0.342403
-0.303246
-0.347248
-0.394156
-0.348652
-0.373724
-0.391729
-0.38693
-0.382681
-0.382014
-0.382386
-0.80286
-0.78776
-0.75257
-0.701092
-0.642401
-0.581883
-0.522032
-0.46565
-0.417469
-0.383093
-0.354048
-0.445491
-0.652168
-0.976597
-0.878026
-0.622363
-0.484706
-0.432276
-0.416633
-0.412062
-0.764692
-0.754961
-0.729693
-0.689473
-0.640632
-0.588733
-0.536171
-0.486049
-0.443138
-0.415905
-0.400035
-0.447077
-0.500734
-0.652629
-0.623494
-0.437939
-0.339577
-0.306065
-0.293651
-0.288397
-0.720775
-0.715275
-0.700209
-0.670913
-0.632414
-0.588671
-0.542898
-0.497712
-0.457694
-0.429792
-0.409556
-0.297201
-0.0386768
0.286833
0.379097
0.204028
0.0108906
-0.087547
-0.112533
-0.112939
-0.680785
-0.67748
-0.670223
-0.650765
-0.620643
-0.583724
-0.543285
-0.50091
-0.460463
-0.427576
-0.408496
-0.290007
-0.107708
0.141356
0.0914863
-0.189935
-0.324274
-0.32155
-0.295173
-0.309741
-0.651402
-0.649317
-0.645559
-0.633482
-0.609615
-0.577344
-0.539539
-0.497744
-0.453678
-0.416716
-0.395551
-0.416504
-0.630526
-1.16127
-1.68886
-1.96341
-1.97858
-1.78094
-1.59294
-1.48337
-0.628754
-0.627922
-0.626647
-0.620622
-0.602214
-0.572297
-0.534405
-0.489966
-0.441735
-0.389132
-0.353124
-0.387658
-0.669249
-1.059
-1.47254
-1.59642
-1.43595
-1.14752
-0.933834
-0.834126
-0.615637
-0.61532
-0.614714
-0.611967
-0.59849
-0.569452
-0.529024
-0.480734
-0.423238
-0.353243
-0.289657
-0.214645
-0.187533
-0.149068
-0.0559848
0.0942632
0.382818
0.620039
0.752373
0.798554
-0.606876
-0.606607
-0.605839
-0.604795
-0.596772
-0.569287
-0.525964
-0.471729
-0.405162
-0.325848
-0.222855
-0.0952688
0.0867107
0.41958
0.83851
1.27465
1.62401
1.83991
1.93553
1.96056
-0.602858
-0.602503
-0.601626
-0.60115
-0.597369
-0.572951
-0.52592
-0.465316
-0.392041
-0.296697
-0.177775
-0.0571276
0.185906
0.61517
1.11213
1.56183
1.89625
2.08019
2.15198
2.16795
-0.602544
-0.603042
-0.604563
-0.606731
-0.605707
-0.580241
-0.529553
-0.464713
-0.384058
-0.282097
-0.164593
-0.0392153
0.142278
0.548791
0.977896
1.35946
1.62822
1.76923
1.82138
1.83209
-0.59855
-0.599717
-0.60245
-0.606007
-0.605472
-0.582122
-0.535743
-0.470396
-0.385217
-0.28096
-0.166699
-0.0508771
0.0853474
0.398107
0.725916
1.00502
1.19974
1.29817
1.33268
1.33909
-0.606776
-0.605353
-0.594442
-0.573118
-0.558416
-0.565062
-0.545679
-0.482639
-0.393448
-0.287845
-0.18125
-0.077083
0.0279225
0.243722
0.472494
0.655479
0.780057
0.839238
0.859815
0.863945
-0.655315
-0.650015
-0.632847
-0.60404
-0.59035
-0.601379
-0.58239
-0.505992
-0.406099
-0.297009
-0.198519
-0.111605
-0.0284272
0.120606
0.263277
0.367085
0.431662
0.461433
0.476088
0.480056
-0.760234
-0.767436
-0.790554
-0.819393
-0.814434
-0.779958
-0.67404
-0.542232
-0.416442
-0.304634
-0.217665
-0.150025
-0.0901039
0.0145703
0.1113
0.173228
0.206187
0.222385
0.233002
0.236817
-0.884937
-0.908621
-0.954106
-0.985649
-0.978015
-0.914186
-0.743323
-0.563842
-0.418088
-0.304745
-0.228328
-0.180347
-0.141732
-0.0571288
0.0159175
0.0647478
0.0920036
0.107837
0.116767
0.119804
-0.876869
-0.897031
-0.934232
-0.961722
-0.953776
-0.877773
-0.703085
-0.530397
-0.390894
-0.288043
-0.225251
-0.193669
-0.170965
-0.0937579
-0.027444
0.019061
0.0544178
0.0724945
0.0799988
0.080948
-0.655996
-0.6774
-0.713914
-0.747619
-0.748163
-0.676856
-0.550149
-0.428727
-0.327974
-0.250366
-0.202428
-0.183239
-0.163469
-0.0994252
-0.0436115
-0.00276589
0.02709
0.0435074
0.0493741
0.0499665
-0.31046
-0.323085
-0.347328
-0.376924
-0.39395
-0.379619
-0.341104
-0.291054
-0.242417
-0.196618
-0.162996
-0.143493
-0.120912
-0.0741057
-0.0342447
-0.00405658
0.0186978
0.031743
0.0369238
0.0365798
-0.0186436
-0.0245867
-0.0406042
-0.0682857
-0.103779
-0.134592
-0.154111
-0.16103
-0.154517
-0.136688
-0.114352
-0.0896891
-0.0611443
-0.0368482
-0.0160536
0.00110037
0.0140841
0.0224188
0.0250553
0.0243238
0.137981
0.134719
0.123484
0.0983893
0.0581806
0.00973529
-0.0334459
-0.0651059
-0.0813749
-0.08147
-0.0667277
-0.0428388
-0.0177937
-0.00776929
-0.000771037
0.00785548
0.0157251
0.0209425
0.0222048
0.0209638
0.184597
0.18283
0.174832
0.154921
0.120641
0.0770283
0.0330407
-0.00433612
-0.0292699
-0.0382177
-0.0294576
-0.0105434
0.0053633
0.00653781
0.0073753
0.0110571
0.0164005
0.01858
0.0182159
0.0165533
0.178261
0.177034
0.171481
0.157402
0.132624
0.0997206
0.063513
0.0298859
0.00419453
-0.0086418
-0.00535788
0.00563668
0.0119759
0.00756652
0.00535732
0.00467827
0.00503234
0.00321303
0.00153872
0.000285341
0.152764
0.151988
0.148367
0.139043
0.122213
0.0989018
0.0715284
0.044416
0.021817
0.00858096
0.00861294
0.0141557
0.0143281
0.00500814
-0.00132332
-0.00660004
-0.0116727
-0.0164877
-0.0193182
-0.0199873
0.123344
0.122899
0.120618
0.114609
0.103457
0.0873868
0.0675019
0.046512
0.0276752
0.0153875
0.0146822
0.0205915
0.0196818
0.00752274
-0.00534468
-0.0149541
-0.0231076
-0.0299091
-0.0323907
-0.0327122
0.0955581
0.0952796
0.0938841
0.0900278
0.0826593
0.0716209
0.0572698
0.0410779
0.0252387
0.0130261
0.0105925
0.0179938
0.0215008
0.00377951
-0.0117402
-0.0221499
-0.030058
-0.0346675
-0.0361284
-0.0365095
0.0712393
0.0710604
0.0701344
0.0676449
0.062714
0.0550129
0.0444261
0.0315401
0.017255
0.00305359
-0.00627451
-0.00630361
-0.00528724
-0.0201571
-0.030331
-0.0349534
-0.0378598
-0.0386663
-0.0392001
-0.039809
0.0506616
0.0505646
0.0499515
0.0483203
0.0450373
0.0395832
0.0315957
0.0208869
0.00698696
-0.0115601
-0.0344743
-0.0567278
-0.0676702
-0.0698154
-0.0637649
-0.0566888
-0.0528453
-0.0509936
-0.0508649
-0.051441
0.0337588
0.033687
0.0332769
0.032264
0.0301083
0.0263239
0.020261
0.0113913
-0.00224448
-0.0245345
-0.0626056
-0.115106
-0.140876
-0.124627
-0.098173
-0.0806756
-0.0721659
-0.0696075
-0.0688554
-0.0689931
0.0202934
0.0202423
0.020005
0.0194159
0.0181233
0.0156774
0.011561
0.00489798
-0.00678184
-0.0293262
-0.0729221
-0.140263
-0.16752
-0.135744
-0.10359
-0.0876619
-0.0820202
-0.0806454
-0.0794465
-0.0789377
0.00981633
0.00979617
0.00970087
0.00944755
0.00883142
0.00756838
0.00517107
0.000934048
-0.00642754
-0.0217709
-0.0548948
-0.10745
-0.120257
-0.0928079
-0.0715129
-0.0656262
-0.0658377
-0.0661015
-0.0648056
-0.0638961
0.00161038
0.00164047
0.00160843
0.00163422
0.00178261
0.0017862
0.00152316
0.00089234
-0.00020047
-0.00228696
-0.00762487
-0.0191208
-0.0268751
-0.0230051
-0.0223473
-0.0214814
-0.0207361
-0.0192345
-0.0173653
-0.0160927
-0.0576452
0.108945
0.303286
0.472869
0.608182
0.714512
0.802314
0.877107
0.911285
0.888031
0.243958
0.364361
0.493847
0.605663
0.6998
0.777609
0.840602
0.885356
0.907761
0.919893
0.462035
0.544582
0.633063
0.711138
0.778249
0.83439
0.879052
0.911705
0.935339
0.953358
0.622321
0.681415
0.742764
0.79967
0.849131
0.891147
0.925675
0.95324
0.975977
0.9943
0.747386
0.790348
0.836177
0.879841
0.918426
0.952141
0.981012
1.00506
1.02541
1.04326
0.851471
0.884258
0.922282
0.957738
0.990296
1.01949
1.04501
1.06648
1.08431
1.10166
0.943871
0.972514
1.00642
1.03851
1.06842
1.09556
1.11928
1.13898
1.15448
1.17155
1.03237
1.06154
1.09552
1.12753
1.15711
1.18367
1.20652
1.225
1.23836
1.2554
1.12763
1.16082
1.19744
1.231
1.26103
1.28721
1.30915
1.32642
1.33828
1.35568
1.2426
1.28041
1.31904
1.35328
1.38261
1.40735
1.42772
1.4436
1.45506
1.47313
1.38752
1.42605
1.46218
1.49286
1.51854
1.54063
1.55968
1.5752
1.58763
1.60562
1.56258
1.5942
1.62037
1.64282
1.66279
1.68151
1.69922
1.7157
1.73104
1.74911
1.75119
1.76839
1.78342
1.79965
1.81555
1.83008
1.84328
1.85721
1.87475
1.8949
1.9329
1.94244
1.95398
1.96478
1.97407
1.98365
1.99443
2.0058
2.01716
2.03251
2.14013
2.14379
2.12885
2.11404
2.10776
2.11344
2.13191
2.16222
2.1944
2.22106
2.44645
2.31159
2.23495
2.19256
2.17514
2.17911
2.2065
2.26292
2.36554
2.5899
0.755516
0.753388
0.748904
0.740281
0.728059
0.715933
0.705708
0.697819
0.692211
0.68897
0.688631
0.691385
0.6965
0.703731
0.713124
0.724667
0.73732
0.748356
0.754469
0.757524
0.679965
0.685812
0.692146
0.69664
0.699112
0.69879
0.696057
0.692254
0.688754
0.686508
0.686377
0.68859
0.692265
0.696562
0.700375
0.702261
0.701327
0.697848
0.692685
0.686065
0.671533
0.67383
0.677234
0.680231
0.682308
0.683808
0.684568
0.684258
0.683243
0.682376
0.682568
0.684012
0.685839
0.687153
0.687339
0.686453
0.684907
0.682572
0.67931
0.676391
0.666013
0.667099
0.668932
0.671312
0.673337
0.674768
0.675794
0.676554
0.676967
0.677206
0.677717
0.678542
0.679153
0.679229
0.678822
0.677978
0.676512
0.67443
0.672346
0.670963
0.660796
0.661459
0.662568
0.664274
0.666058
0.667693
0.668994
0.670019
0.670915
0.671724
0.672475
0.673047
0.673255
0.673098
0.672538
0.671489
0.670064
0.668524
0.667208
0.666428
0.655804
0.656264
0.657051
0.65835
0.659839
0.66136
0.662831
0.664138
0.665289
0.666366
0.667307
0.667897
0.668059
0.667797
0.667108
0.666124
0.665003
0.663874
0.662961
0.662445
0.650955
0.651299
0.65191
0.65298
0.654276
0.655654
0.657099
0.658555
0.659944
0.661248
0.662388
0.663105
0.663301
0.66304
0.66245
0.661681
0.660836
0.659974
0.659304
0.658926
0.646194
0.646462
0.646955
0.647865
0.649037
0.650337
0.651739
0.653238
0.654796
0.656343
0.657724
0.658623
0.658948
0.658844
0.658463
0.657912
0.657271
0.656638
0.656149
0.655861
0.64144
0.641653
0.642063
0.642863
0.643954
0.645207
0.646599
0.648146
0.649837
0.651622
0.653292
0.654455
0.65502
0.655159
0.655009
0.654679
0.654245
0.653803
0.653455
0.653229
0.636605
0.636776
0.637128
0.637854
0.6389
0.640131
0.641552
0.643183
0.645032
0.647073
0.649088
0.650609
0.651498
0.651924
0.652027
0.651927
0.651706
0.651437
0.651205
0.651025
0.6316
0.631738
0.632048
0.63273
0.633759
0.635015
0.636502
0.63826
0.64032
0.642674
0.64511
0.647078
0.648355
0.649115
0.649505
0.64965
0.64964
0.649539
0.649405
0.649261
0.626336
0.626447
0.626729
0.627392
0.628439
0.629764
0.631363
0.633301
0.63564
0.638388
0.641344
0.643848
0.645584
0.64673
0.647446
0.647858
0.648064
0.648133
0.648086
0.647969
0.620716
0.620804
0.62107
0.621738
0.622839
0.624276
0.62604
0.628228
0.630922
0.634172
0.637765
0.640912
0.643192
0.644785
0.645866
0.646592
0.647043
0.64727
0.647298
0.647202
0.614633
0.6147
0.61496
0.615655
0.616848
0.618444
0.620438
0.622953
0.626103
0.629976
0.634349
0.638269
0.641194
0.643314
0.644815
0.645889
0.646607
0.647007
0.647108
0.647029
0.607956
0.608004
0.608265
0.60901
0.610336
0.612147
0.614444
0.617378
0.621104
0.62575
0.63107
0.635921
0.639612
0.642353
0.644349
0.645812
0.646843
0.647428
0.6476
0.647535
0.600533
0.600562
0.600829
0.601647
0.60315
0.60524
0.607925
0.611394
0.615841
0.621436
0.627906
0.633875
0.638478
0.641949
0.644531
0.64646
0.647841
0.648627
0.64887
0.648815
0.592166
0.592182
0.592451
0.593366
0.595105
0.59754
0.600725
0.604869
0.610216
0.61698
0.624845
0.632149
0.637831
0.642162
0.645435
0.647922
0.649703
0.650707
0.651022
0.650975
0.582549
0.582535
0.582865
0.583922
0.585944
0.588835
0.592655
0.597651
0.604121
0.612324
0.621877
0.630768
0.637723
0.643068
0.647151
0.650292
0.652533
0.653778
0.654166
0.654122
0.571392
0.571353
0.571728
0.572979
0.575373
0.578853
0.583482
0.589557
0.597435
0.607413
0.619001
0.629773
0.638216
0.644747
0.649782
0.653669
0.656443
0.657947
0.658404
0.65836
0.558213
0.558147
0.5586
0.560105
0.562984
0.567232
0.57291
0.58037
0.590024
0.602188
0.616219
0.629201
0.63937
0.647268
0.653413
0.658164
0.661529
0.663301
0.663821
0.663772
0.542362
0.542267
0.542845
0.544702
0.548233
0.553506
0.560576
0.569846
0.581765
0.596628
0.613574
0.629123
0.641265
0.650716
0.658124
0.663847
0.667858
0.669898
0.670466
0.670406
0.522901
0.52278
0.52356
0.525933
0.53038
0.537078
0.546048
0.557729
0.572563
0.590758
0.611149
0.629627
0.643985
0.655166
0.663959
0.67077
0.675454
0.677735
0.678327
0.678248
0.498414
0.498276
0.49939
0.502563
0.508398
0.517183
0.528849
0.543811
0.562409
0.584677
0.609074
0.630829
0.647608
0.660678
0.670956
0.678939
0.684263
0.686724
0.687305
0.687199
0.466595
0.466478
0.468204
0.47276
0.480897
0.492929
0.508545
0.52801
0.551422
0.578585
0.607542
0.632874
0.652221
0.667279
0.679133
0.688272
0.69413
0.696666
0.697189
0.697049
0.42329
0.423337
0.426405
0.433845
0.446247
0.463576
0.485042
0.510574
0.539984
0.572855
0.606843
0.635938
0.657921
0.674988
0.688392
0.698612
0.704778
0.707222
0.707637
0.707462
0.360735
0.361937
0.369436
0.383307
0.403501
0.429252
0.458952
0.492209
0.528718
0.567957
0.607258
0.640172
0.664746
0.683746
0.698572
0.709573
0.715762
0.717876
0.718123
0.717926
0.286565
0.288325
0.302675
0.326489
0.357601
0.393301
0.431987
0.473478
0.517587
0.56383
0.609275
0.646894
0.674804
0.696243
0.712754
0.724516
0.730549
0.732399
0.732609
0.732506
0.21004
0.21622
0.237411
0.271458
0.312966
0.358316
0.405946
0.455721
0.507522
0.560897
0.612663
0.655133
0.686461
0.710426
0.728819
0.741086
0.746563
0.747944
0.748084
0.748051
0.14744
0.155923
0.181676
0.222731
0.272386
0.325974
0.381675
0.439211
0.498356
0.55859
0.616414
0.663465
0.697969
0.724166
0.743795
0.756342
0.761714
0.762929
0.763081
0.763104
0.0965263
0.105606
0.134904
0.181193
0.237
0.29723
0.359756
0.42414
0.489986
0.55665
0.620231
0.671635
0.709112
0.737383
0.758364
0.771416
0.776608
0.778014
0.778263
0.778328
0.0539239
0.0632838
0.0950289
0.145311
0.206167
0.271908
0.340224
0.410608
0.482498
0.555105
0.624104
0.679656
0.719989
0.750305
0.772631
0.78626
0.791845
0.793479
0.79375
0.79384
0.0172695
0.0267389
0.0603201
0.113803
0.178834
0.249279
0.322649
0.398348
0.475705
0.553803
0.627913
0.68743
0.730525
0.762817
0.786454
0.800986
0.807034
0.808826
0.809123
0.809202
-0.0151099
-0.00560611
0.029384
0.0855706
0.154099
0.228599
0.306435
0.386917
0.469296
0.552527
0.631489
0.694804
0.740555
0.774736
0.799665
0.814999
0.821567
0.823532
0.823846
0.823913
-0.0444984
-0.0349569
0.0011893
0.059708
0.131235
0.209286
0.291098
0.375928
0.462946
0.551011
0.63461
0.701583
0.749875
0.785833
0.811982
0.828064
0.835145
0.837237
0.837557
0.837591
-0.071775
-0.0621888
-0.0250312
0.035503
0.109701
0.190897
0.276267
0.36505
0.456372
0.549017
0.637104
0.707639
0.758382
0.796025
0.823252
0.83995
0.847466
0.849676
0.849997
0.850009
-0.0975057
-0.0878607
-0.0497537
0.0124821
0.0890875
0.173087
0.261659
0.354052
0.449378
0.546384
0.638848
0.712906
0.766044
0.80529
0.833472
0.850647
0.858394
0.860708
0.861029
0.861014
-0.122189
-0.112393
-0.0734312
-0.00963429
0.0691165
0.155618
0.247083
0.342774
0.44183
0.54299
0.639747
0.717353
0.772897
0.81367
0.84271
0.860242
0.868084
0.870393
0.870715
0.870674
-0.14608
-0.136069
-0.0963657
-0.0310499
0.0496052
0.138338
0.232414
0.331115
0.433627
0.538746
0.639743
0.720962
0.778992
0.821304
0.85109
0.868819
0.876648
0.878925
0.879217
0.879156
-0.169288
-0.159073
-0.118602
-0.0519125
0.0304363
0.121171
0.217584
0.319016
0.424719
0.533588
0.638776
0.723734
0.784397
0.828323
0.858791
0.876596
0.884305
0.886489
0.886731
0.886643
-0.191985
-0.181476
-0.14026
-0.0723049
0.0115556
0.104072
0.202572
0.306464
0.415092
0.527489
0.636791
0.725646
0.789179
0.834886
0.866016
0.883733
0.891189
0.89321
0.893387
0.893277
-0.214132
-0.203354
-0.16142
-0.0922737
-0.00704795
0.087047
0.187401
0.293487
0.404759
0.520431
0.633741
0.726646
0.793381
0.841133
0.872945
0.890404
0.897409
0.899168
0.899248
0.899114
-0.235793
-0.224716
-0.182017
-0.111807
-0.0253604
0.0701221
0.172106
0.280135
0.393766
0.512429
0.629584
0.726667
0.796986
0.847176
0.879827
0.89684
0.903085
0.904416
0.90438
0.904231
-0.256805
-0.245499
-0.202049
-0.130867
-0.0433412
0.0533635
0.156749
0.266474
0.38218
0.503534
0.62429
0.725621
0.79992
0.853073
0.886947
0.903442
0.90853
0.909099
0.908856
0.908708
-0.277308
-0.265663
-0.221508
-0.149442
-0.0609621
0.0368062
0.141416
0.252582
0.370084
0.493819
0.617862
0.723403
0.802035
0.858762
0.894537
0.910812
0.914409
0.913551
0.912765
0.912621
-0.297142
-0.285187
-0.240366
-0.167489
-0.0781481
0.020532
0.126187
0.238574
0.357584
0.483345
0.610334
0.719903
0.803128
0.864023
0.902575
0.919608
0.922052
0.919001
0.916589
0.915723
-0.316368
-0.304116
-0.258574
-0.184959
-0.0948655
0.00460803
0.111142
0.224529
0.344789
0.472244
0.601769
0.715013
0.802955
0.868467
0.91056
0.929943
0.933011
0.928453
0.921997
0.913752
-0.334906
-0.322407
-0.276223
-0.202009
-0.11132
-0.0112328
0.0959551
0.210058
0.331265
0.460032
0.591654
0.708199
0.801048
0.871777
0.917866
0.941171
0.947662
0.943187
0.932655
0.927596
-0.352708
-0.339985
-0.293299
-0.218611
-0.12752
-0.0269843
0.0806384
0.195141
0.316962
0.446586
0.579784
0.699062
0.796607
0.87316
0.922519
0.949062
0.957885
0.957059
0.919135
0.867319
-0.369487
-0.35607
-0.309653
-0.234696
-0.143567
-0.0428042
0.065136
0.179891