/*--------------------------------*- C++ -*----------------------------------*\
  =========                 |
  \\      /  F ield         | OpenFOAM: The Open Source CFD Toolbox
   \\    /   O peration     | Website:  https://openfoam.org
    \\  /    A nd           | Version:  9
     \\/     M anipulation  |
\*---------------------------------------------------------------------------*/
FoamFile
{
    format      ascii;
    class       volVectorField;
    location    "61";
    object      U;
}
// * * * * * * * * * * * * * * * * * * * * * * * * * * * * * * * * * * * * * //

dimensions      [0 1 -1 0 0 0 0];

internalField   nonuniform List<vector> 
8800
(
(0.980139 -0.0915206 0)
(1.00234 -0.05873 0)
(0.999581 -0.0321293 0)
(0.999976 -0.0165228 0)
(1.00007 -0.00884273 0)
(1.00009 -0.00509834 0)
(1.00006 -0.00299463 0)
(1.00002 -0.00168319 0)
(1 -0.000780768 0)
(1.00006 -8.14546e-05 0)
(0.999987 0.000627848 0)
(0.999994 0.00138384 0)
(1.00002 0.0024083 0)
(1.00005 0.00400838 0)
(1.00004 0.00675104 0)
(0.999996 0.0120513 0)
(0.999797 0.0230948 0)
(0.999031 0.0431561 0)
(1.00724 0.0790253 0)
(0.775025 0.0478395 0)
(0.358992 -0.0147483 0)
(1.0465 -0.0724809 0)
(1.08847 -0.0660177 0)
(1.04944 -0.0509107 0)
(1.02554 -0.0376898 0)
(1.01275 -0.0258846 0)
(1.00658 -0.0166881 0)
(1.00364 -0.0101958 0)
(1.00219 -0.00556151 0)
(1.00152 -0.00196398 0)
(1.00138 0.00125087 0)
(1.00173 0.00456163 0)
(1.0027 0.00845062 0)
(1.00475 0.0137591 0)
(1.00898 0.0214294 0)
(1.01794 0.0319159 0)
(1.03579 0.0446856 0)
(1.06741 0.0581254 0)
(1.09469 0.0699541 0)
(0.845614 0.0555086 0)
(0.217806 -0.00138017 0)
(1.07569 -0.0506405 0)
(1.09942 -0.0489209 0)
(1.06439 -0.0400021 0)
(1.03991 -0.0325412 0)
(1.02383 -0.0253252 0)
(1.01404 -0.0181002 0)
(1.00853 -0.0114717 0)
(1.00566 -0.00570785 0)
(1.00448 -0.000411348 0)
(1.00479 0.0047028 0)
(1.00662 0.00999118 0)
(1.01057 0.0159545 0)
(1.01789 0.0227002 0)
(1.03048 0.0297932 0)
(1.05046 0.0368729 0)
(1.08002 0.0446438 0)
(1.10563 0.051962 0)
(0.943225 0.0410212 0)
(0.21716 0.0014064 0)
(0.176675 -0.000628099 0)
(1.01944 -0.0354476 0)
(1.10573 -0.0413854 0)
(1.078 -0.0363645 0)
(1.05249 -0.0303153 0)
(1.03527 -0.0244333 0)
(1.0234 -0.0186291 0)
(1.01557 -0.0126207 0)
(1.01095 -0.00651484 0)
(1.00891 -0.000268963 0)
(1.00942 0.0058924 0)
(1.01249 0.0118072 0)
(1.01846 0.0175663 0)
(1.02805 0.0231258 0)
(1.04223 0.0286608 0)
(1.06304 0.0344306 0)
(1.09382 0.0403074 0)
(1.09437 0.0418203 0)
(0.83009 0.0227942 0)
(0.175572 0.000649133 0)
(0.154782 -0.000461826 0)
(0.95827 -0.0256706 0)
(1.10445 -0.0350814 0)
(1.08812 -0.032625 0)
(1.06132 -0.0281125 0)
(1.04328 -0.0231424 0)
(1.03088 -0.0178284 0)
(1.02227 -0.012273 0)
(1.0167 -0.00634931 0)
(1.01403 0.000114741 0)
(1.01465 0.00657832 0)
(1.01842 0.0124493 0)
(1.02521 0.0177524 0)
(1.03534 0.0227384 0)
(1.05005 0.0275459 0)
(1.07198 0.0319723 0)
(1.10093 0.0358376 0)
(1.06958 0.0340279 0)
(0.742339 0.0144753 0)
(0.153128 0.000485454 0)
(0.140117 -0.000333651 0)
(0.901319 -0.0193023 0)
(1.09689 -0.0301794 0)
(1.09629 -0.0292915 0)
(1.06905 -0.0255017 0)
(1.05023 -0.0214068 0)
(1.03724 -0.0166932 0)
(1.02824 -0.0114278 0)
(1.02227 -0.00568945 0)
(1.01926 0.000678376 0)
(1.01984 0.00705544 0)
(1.02382 0.0127031 0)
(1.03085 0.0176686 0)
(1.04135 0.0221126 0)
(1.05668 0.0260387 0)
(1.07947 0.0295375 0)
(1.1032 0.0322364 0)
(1.03772 0.0282052 0)
(0.675416 0.0103343 0)
(0.137787 0.000361704 0)
(0.129401 -0.000252133 0)
(0.851515 -0.0149026 0)
(1.08458 -0.0260732 0)
(1.102 -0.0264063 0)
(1.07591 -0.023077 0)
(1.05657 -0.0194114 0)
(1.04316 -0.015199 0)
(1.03378 -0.0103181 0)
(1.02753 -0.00480134 0)
(1.02429 0.00138135 0)
(1.02475 0.00754157 0)
(1.02873 0.0129059 0)
(1.03591 0.0174472 0)
(1.0467 0.0212848 0)
(1.0624 0.024611 0)
(1.08562 0.0276293 0)
(1.10238 0.0294239 0)
(1.00293 0.0236817 0)
(0.62324 0.00793799 0)
(0.126245 0.000286262 0)
(0.12124 -0.000193235 0)
(0.809097 -0.0117147 0)
(1.06932 -0.0224733 0)
(1.10555 -0.0237693 0)
(1.08218 -0.0208914 0)
(1.06239 -0.0174519 0)
(1.0487 -0.0135215 0)
(1.03906 -0.00896205 0)
(1.03254 -0.00371915 0)
(1.02906 0.00222992 0)
(1.02935 0.00811938 0)
(1.03327 0.0131288 0)
(1.04051 0.0172102 0)
(1.05139 0.0205708 0)
(1.06733 0.023502 0)
(1.09094 0.0262042 0)
(1.09868 0.0270889 0)
(0.967701 0.0201288 0)
(0.581319 0.00637768 0)
(0.117078 0.000234727 0)
(0.114918 -0.000148543 0)
(0.773346 -0.00932847 0)
(1.05252 -0.0193034 0)
(1.10793 -0.0213328 0)
(1.08807 -0.0188369 0)
(1.06786 -0.0155582 0)
(1.05392 -0.0117961 0)
(1.04409 -0.00743854 0)
(1.03734 -0.00243506 0)
(1.03359 0.00325354 0)
(1.03367 0.00883413 0)
(1.03745 0.0134656 0)
(1.04462 0.0171443 0)
(1.05552 0.0201239 0)
(1.07169 0.0227219 0)
(1.09499 0.0250785 0)
(1.09216 0.0251546 0)
(0.933385 0.0173806 0)
(0.546643 0.00530851 0)
(0.109535 0.000198884 0)
(0.109988 -0.000113231 0)
(0.743336 -0.00747946 0)
(1.03525 -0.0164917 0)
(1.10935 -0.0190411 0)
(1.09366 -0.0168582 0)
(1.07316 -0.0136782 0)
(1.05893 -0.0100148 0)
(1.04891 -0.00578354 0)
(1.04194 -0.000952256 0)
(1.03791 0.00448624 0)
(1.0377 0.00974251 0)
(1.04126 0.01401 0)
(1.04829 0.0173231 0)
(1.05918 0.0199542 0)
(1.07556 0.0222636 0)
(1.09776 0.0242534 0)
(1.08318 0.0235642 0)
(0.900569 0.0152885 0)
(0.517147 0.00456237 0)
(0.103122 0.000174161 0)
(0.106159 -8.40672e-05 0)
(0.718246 -0.00599071 0)
(1.01834 -0.0139671 0)
(1.10993 -0.0168267 0)
(1.09914 -0.0149275 0)
(1.07836 -0.0117664 0)
(1.06383 -0.00814141 0)
(1.05359 -0.00397845 0)
(1.04637 0.000737247 0)
(1.04202 0.00596523 0)
(1.04145 0.0109191 0)
(1.04471 0.014848 0)
(1.05156 0.0178183 0)
(1.06241 0.0201092 0)
(1.07899 0.0221531 0)
(1.09917 0.0237456 0)
(1.07214 0.0223154 0)
(0.869381 0.0137384 0)
(0.491361 0.00404751 0)
(0.0974886 0.000158091 0)
(0.103237 -5.88594e-05 0)
(0.697431 -0.004744 0)
(1.00242 -0.0116632 0)
(1.10982 -0.0146517 0)
(1.10446 -0.0129583 0)
(1.08356 -0.00976952 0)
(1.06871 -0.00612387 0)
(1.0582 -0.00196816 0)
(1.05067 0.00268119 0)
(1.04594 0.00774534 0)
(1.04493 0.0124248 0)
(1.04782 0.0160233 0)
(1.05445 0.0186555 0)
(1.06524 0.0206128 0)
(1.08197 0.0224015 0)
(1.09957 0.0235815 0)
(1.05933 0.0214176 0)
(0.839669 0.0126417 0)
(0.468188 0.00370725 0)
(0.0923748 0.000148801 0)
(0.101103 -3.56641e-05 0)
(0.680417 -0.00365092 0)
(0.987924 -0.00951031 0)
(1.10923 -0.0124316 0)
(1.10959 -0.0108603 0)
(1.08883 -0.00762239 0)
(1.07362 -0.00390058 0)
(1.0628 0.000310756 0)
(1.05491 0.00494698 0)
(1.04968 0.00989505 0)
(1.04815 0.0143274 0)
(1.0506 0.0176085 0)
(1.05696 0.0199046 0)
(1.06768 0.021522 0)
(1.08446 0.0230369 0)
(1.09898 0.0237997 0)
(1.04491 0.0208893 0)
(0.811118 0.0119272 0)
(0.446773 0.00350326 0)
(0.0875766 0.00014481 0)
(0.0996903 -1.28009e-05 0)
(0.666896 -0.00264204 0)
(0.975228 -0.00743375 0)
(1.10848 -0.0101075 0)
(1.11465 -0.00857971 0)
(1.09425 -0.00526105 0)
(1.07866 -0.00139936 0)
(1.06745 0.00292874 0)
(1.05911 0.00761475 0)
(1.0533 0.012499 0)
(1.05112 0.0167112 0)
(1.05304 0.0196746 0)
(1.05908 0.0216236 0)
(1.06969 0.0228786 0)
(1.0865 0.024131 0)
(1.09716 0.0244356 0)
(1.02894 0.0207067 0)
(0.783312 0.0115356 0)
(0.426423 0.0034086 0)
(0.0829311 0.000145083 0)
(0.0989835 1.16679e-05 0)
(0.656712 -0.00166319 0)
(0.964644 -0.00536203 0)
(1.10787 -0.00761318 0)
(1.11979 -0.00603382 0)
(1.0999 -0.00258218 0)
(1.08389 0.00148539 0)
(1.07223 0.00599121 0)
(1.06333 0.0107925 0)
(1.0568 0.015657 0)
(1.05385 0.0196628 0)
(1.05514 0.0223053 0)
(1.06079 0.0238877 0)
(1.07126 0.0247574 0)
(1.088 0.0257196 0)
(1.09404 0.0255201 0)
(1.0114 0.0209108 0)
(0.755794 0.0114415 0)
(0.406559 0.00340972 0)
(0.078305 0.000149164 0)
(0.099002 3.45204e-05 0)
(0.649832 -0.000666903 0)
(0.956471 -0.00322197 0)
(1.10777 -0.00487915 0)
(1.12515 -0.00314552 0)
(1.10588 0.000497196 0)
(1.0894 0.00484015 0)
(1.07721 0.00960353 0)
(1.06763 0.0145904 0)
(1.06023 0.0194823 0)
(1.05635 0.0232946 0)
(1.05689 0.0256017 0)
(1.06206 0.0268032 0)
(1.07237 0.0272722 0)
(1.08875 0.0278698 0)
(1.08944 0.027077 0)
(0.992163 0.0215243 0)
(0.728043 0.0116258 0)
(0.386653 0.003497 0)
(0.0735758 0.00015659 0)
(0.0997812 7.08937e-05 0)
(0.646333 0.000356488 0)
(0.951029 -0.000938355 0)
(1.10852 -0.00181752 0)
(1.13095 0.000186757 0)
(1.11229 0.00409757 0)
(1.0953 0.00880425 0)
(1.08247 0.013909 0)
(1.07206 0.0191526 0)
(1.0636 0.0241206 0)
(1.0586 0.0277474 0)
(1.05823 0.0296911 0)
(1.06286 0.0304864 0)
(1.07296 0.0305308 0)
(1.08862 0.0307075 0)
(1.08313 0.0291784 0)
(0.970961 0.0225788 0)
(0.699494 0.0120793 0)
(0.366215 0.00366333 0)
(0.0686351 0.000166883 0)
(0.101532 0.000100198 0)
(0.646601 0.00151776 0)
(0.948666 0.00157077 0)
(1.11055 0.00168265 0)
(1.13738 0.00406673 0)
(1.11928 0.00838186 0)
(1.1017 0.0135502 0)
(1.08809 0.019087 0)
(1.07666 0.0246624 0)
(1.06692 0.0297445 0)
(1.06058 0.0331822 0)
(1.05915 0.0347183 0)
(1.06311 0.0350688 0)
(1.07295 0.0346474 0)
(1.08736 0.0343427 0)
(1.07483 0.0319174 0)
(0.947432 0.0241089 0)
(0.669538 0.0127989 0)
(0.34478 0.00390332 0)
(0.063386 0.000179613 0)
(0.104309 0.000147627 0)
(0.651021 0.00295396 0)
(0.949879 0.00446397 0)
(1.11436 0.00571789 0)
(1.14466 0.00865176 0)
(1.12701 0.0135098 0)
(1.10874 0.0192533 0)
(1.09417 0.0253336 0)
(1.0815 0.0313241 0)
(1.0702 0.0365556 0)
(1.06226 0.0397793 0)
(1.0596 0.0408497 0)
(1.06275 0.0407074 0)
(1.07228 0.0397554 0)
(1.0848 0.0389134 0)
(1.0642 0.0353903 0)
(0.921086 0.0261556 0)
(0.63752 0.0137804 0)
(0.321903 0.0042102 0)
(0.0577438 0.000193986 0)
(0.108392 0.00020986 0)
(0.660115 0.00463644 0)
(0.95512 0.00788666 0)
(1.12043 0.0104827 0)
(1.15309 0.0141558 0)
(1.13567 0.0197283 0)
(1.11657 0.0261905 0)
(1.10081 0.0329351 0)
(1.08661 0.0394124 0)
(1.07342 0.044793 0)
(1.06359 0.0477246 0)
(1.0595 0.0482592 0)
(1.06171 0.0475718 0)
(1.07084 0.0460411 0)
(1.08098 0.0445834 0)
(1.05079 0.0397106 0)
(0.891288 0.0287506 0)
(0.602725 0.0150119 0)
(0.297155 0.00457299 0)
(0.0516415 0.000208997 0)
(0.114117 0.000293514 0)
(0.674602 0.00672441 0)
(0.965036 0.012038 0)
(1.12935 0.0162127 0)
(1.163 0.020849 0)
(1.14553 0.0273713 0)
(1.12537 0.0347155 0)
(1.10813 0.0422437 0)
(1.09201 0.0492585 0)
(1.07654 0.0547441 0)
(1.06449 0.0572739 0)
(1.0587 0.0571303 0)
(1.05989 0.0558339 0)
(1.06854 0.0536588 0)
(1.07567 0.0514678 0)
(1.034 0.0449606 0)
(0.857272 0.0318985 0)
(0.564417 0.0164602 0)
(0.270172 0.00497105 0)
(0.0450425 0.000222974 0)
(0.12199 0.000414158 0)
(0.695441 0.00946033 0)
(0.980494 0.0172222 0)
(1.14176 0.0232529 0)
(1.17488 0.0291139 0)
(1.15688 0.036868 0)
(1.13533 0.0452793 0)
(1.11616 0.0537057 0)
(1.09766 0.0612563 0)
(1.07945 0.0667343 0)
(1.06484 0.0686901 0)
(1.05711 0.0677071 0)
(1.05717 0.0656505 0)
(1.06536 0.0627446 0)
(1.06855 0.05971 0)
(1.01308 0.0512055 0)
(0.81813 0.0355749 0)
(0.521869 0.0180635 0)
(0.24069 0.00537346 0)
(0.0379553 0.00023383 0)
(0.132729 0.000584776 0)
(0.723889 0.0132145 0)
(1.00266 0.0239186 0)
(1.15846 0.0321553 0)
(1.18932 0.0395601 0)
(1.17006 0.0489047 0)
(1.14661 0.0585718 0)
(1.12493 0.0679401 0)
(1.10344 0.0759039 0)
(1.08196 0.0811092 0)
(1.06444 0.0821946 0)
(1.0546 0.080179 0)
(1.05345 0.0772127 0)
(1.06097 0.0734286 0)
(1.05897 0.0693528 0)
(0.987062 0.0584546 0)
(0.772851 0.0396815 0)
(0.474451 0.0197117 0)
(0.208633 0.00573349 0)
(0.0304532 0.000238807 0)
(0.147598 0.000861322 0)
(0.761982 0.0186014 0)
(1.0332 0.0329189 0)
(1.18038 0.0438711 0)
(1.2071 0.0533116 0)
(1.1854 0.0645484 0)
(1.15925 0.0755645 0)
(1.13427 0.0857319 0)
(1.1091 0.0937681 0)
(1.08382 0.0982391 0)
(1.06306 0.0980231 0)
(1.05101 0.0946855 0)
(1.04857 0.090659 0)
(1.05501 0.0859656 0)
(1.04623 0.0805009 0)
(0.954711 0.0665813 0)
(0.720423 0.0440197 0)
(0.421797 0.0212363 0)
(0.174225 0.00598892 0)
(0.0226951 0.000234742 0)
(0.168797 0.0013385 0)
(0.812977 0.0267874 0)
(1.07466 0.0457805 0)
(1.20867 0.0602303 0)
(1.22881 0.0724175 0)
(1.20297 0.0853639 0)
(1.17298 0.0975285 0)
(1.14374 0.107992 0)
(1.11415 0.115436 0)
(1.08459 0.118469 0)
(1.0604 0.116374 0)
(1.0461 0.111337 0)
(1.04243 0.106052 0)
(1.04742 0.100448 0)
(1.02936 0.0930409 0)
(0.914523 0.0752955 0)
(0.660052 0.0482646 0)
(0.364124 0.0224204 0)
(0.138173 0.00607038 0)
(0.0149506 0.000218136 0)
(0.199718 0.00239694 0)
(0.882606 0.0404744 0)
(1.13072 0.0663551 0)
(1.24375 0.0848088 0)
(1.25419 0.0995895 0)
(1.22217 0.113696 0)
(1.18701 0.126067 0)
(1.15253 0.135708 0)
(1.1179 0.141447 0)
(1.08375 0.142036 0)
(1.05609 0.13731 0)
(1.03966 0.130153 0)
(1.03487 0.123366 0)
(1.03788 0.116634 0)
(1.007 0.106765 0)
(0.864745 0.0840141 0)
(0.59168 0.0519297 0)
(0.302946 0.0230849 0)
(0.10209 0.00595703 0)
(0.00770696 0.000187808 0)
(0.241857 0.00863739 4.70454e-20)
(0.974993 0.0677741 4.10698e-20)
(1.19916 0.100808 -1.43463e-20)
(1.28253 0.121241 0)
(1.28047 0.138444 -3.65444e-34)
(1.24088 0.151903 5.34074e-21)
(1.19978 0.162712 -9.60594e-21)
(1.15953 0.170118 0)
(1.1195 0.173068 1.96937e-34)
(1.08047 0.170395 -1.18458e-20)
(1.04914 0.162531 0)
(1.03042 0.153035 -1.40478e-20)
(1.02463 0.144868 -4.14279e-20)
(1.02508 0.137859 -1.95727e-20)
(0.975494 0.124231 -5.88636e-21)
(0.799665 0.0944176 -3.49702e-21)
(0.50998 0.0555231 0)
(0.23649 0.023613 2.4449e-21)
(0.0660239 0.00596113 2.8865e-21)
(0.000953937 0.000172866 5.20387e-20)
(0.271402 0.0241135 3.43606e-20)
(1.05124 0.110414 5.36026e-22)
(1.25563 0.149892 3.82338e-21)
(1.31713 0.170535 0)
(1.30349 0.187576 -1.85457e-20)
(1.25686 0.198837 -2.10631e-20)
(1.20985 0.207302 -9.69394e-21)
(1.16377 0.212187 -3.44675e-20)
(1.11809 0.212302 0)
(1.07373 0.206434 5.04311e-20)
(1.03815 0.195512 4.99782e-20)
(1.01677 0.183663 1.48394e-20)
(1.00893 0.17359 5.40821e-20)
(1.00161 0.164058 7.60043e-20)
(0.926484 0.14493 0)
(0.712591 0.105774 1.0701e-19)
(0.414489 0.0590388 1.53435e-19)
(0.167536 0.0235201 1.70372e-19)
(0.0302191 0.0047709 -1.94749e-19)
(-0.00590358 -0.000476121 -3.66743e-21)
(0.27244 0.0399159 0)
(1.09937 0.165684 6.03225e-21)
(1.29355 0.210282 0)
(1.34396 0.230381 -2.40945e-20)
(1.32149 0.244364 0)
(1.26894 0.251759 -4.13685e-20)
(1.21639 0.256493 1.98002e-20)
(1.16476 0.257781 -6.93688e-20)
(1.11368 0.254226 -1.57742e-21)
(1.06421 0.244543 2.60947e-20)
(1.02455 0.230156 1.09879e-19)
(1.00056 0.21571 -2.40132e-22)
(0.990337 0.203583 -3.92889e-20)
(0.975489 0.191317 -7.15549e-20)
(0.882341 0.165942 8.46372e-20)
(0.651307 0.116979 -1.4984e-19)
(0.360379 0.0626145 -1.97804e-20)
(0.133667 0.0234067 0)
(0.0136738 0.00303466 -9.97113e-24)
(-0.00924255 -0.0013145 0)
(0.266048 0.0535944 7.78754e-20)
(1.12525 0.224249 -3.8154e-20)
(1.31683 0.275121 -2.95279e-20)
(1.36166 0.29539 1.13535e-20)
(1.33306 0.305476 -1.91143e-20)
(1.27606 0.308361 8.66887e-20)
(1.21895 0.308696 4.1319e-20)
(1.16252 0.305749 0)
(1.10663 0.297986 -1.30856e-19)
(1.05245 0.284054 0)
(1.00893 0.265923 -5.76807e-20)
(0.982341 0.248682 -7.11775e-20)
(0.96972 0.23432 -4.27875e-20)
(0.94885 0.218856 -5.19652e-20)
(0.845944 0.187414 0)
(0.612106 0.130116 0)
(0.333168 0.0690076 -1.28679e-19)
(0.11875 0.0247143 2.54172e-20)
(0.00569555 0.00149849 -1.48893e-20)
(-0.0113957 -0.00225895 -1.74151e-20)
(0.258432 0.0656835 -3.01263e-20)
(1.13653 0.282657 0)
(1.32951 0.340877 5.97049e-20)
(1.3712 0.361808 3.18228e-20)
(1.33831 0.368085 4.43186e-20)
(1.27808 0.366438 0)
(1.21738 0.362256 4.04078e-20)
(1.15698 0.35489 7.6773e-20)
(1.0969 0.342716 6.70336e-20)
(1.03849 0.324334 1.22986e-19)
(0.991381 0.302237 0)
(0.96226 0.282027 -1.53565e-19)
(0.947283 0.265295 -9.24789e-20)
(0.921944 0.246762 -5.46749e-20)
(0.815446 0.209981 3.34644e-19)
(0.587377 0.145386 3.97508e-20)
(0.321554 0.0779988 1.86616e-19)
(0.116361 0.0277922 -8.83653e-19)
(0.00440575 0.000780019 5.22544e-19)
(-0.0123052 -0.00307403 -6.29565e-19)
(0.251108 0.0765887 -1.31492e-20)
(1.13847 0.339051 5.42681e-21)
(1.3345 0.405639 -6.28569e-21)
(1.37419 0.42774 -3.17272e-20)
(1.3382 0.430448 -3.71351e-20)
(1.27555 0.424449 1.80266e-21)
(1.212 0.415905 -4.38046e-20)
(1.14832 0.404198 7.94236e-20)
(1.08466 0.387642 -1.4434e-19)
(1.02248 0.364788 0)
(0.972051 0.338687 -6.9582e-20)
(0.94048 0.315491 -1.61092e-21)
(0.923204 0.296396 -1.01249e-19)
(0.894736 0.274947 0)
(0.788889 0.233422 -7.25522e-20)
(0.570909 0.162723 -1.72169e-19)
(0.319156 0.0893061 4.58197e-19)
(0.120932 0.0328122 -4.51664e-19)
(0.00818894 0.00149545 6.41292e-19)
(-0.0118289 -0.00354536 -6.66322e-19)
(0.244924 0.086659 -4.13865e-22)
(1.13461 0.392776 -1.39657e-21)
(1.33396 0.468415 -1.64068e-20)
(1.37204 0.49197 1.24368e-20)
(1.33377 0.491508 -1.86619e-20)
(1.2693 0.481445 0)
(1.20345 0.468795 -4.07012e-20)
(1.13705 0.452954 -8.31934e-20)
(1.07029 0.432178 -7.50442e-20)
(1.00471 0.404964 0)
(0.951217 0.374958 -7.22705e-20)
(0.917285 0.348812 -8.95259e-20)
(0.897814 0.327363 1.09931e-19)
(0.867069 0.303102 -6.67073e-20)
(0.76418 0.257287 -3.17522e-19)
(0.557808 0.181486 1.88444e-19)
(0.320187 0.102146 5.58702e-20)
(0.128628 0.0395614 0)
(0.0148795 0.00367705 -6.21238e-19)
(-0.010366 -0.0036123 -2.27991e-20)
(0.239988 0.0962061 1.34532e-21)
(1.12725 0.443648 -1.27643e-21)
(1.32939 0.528731 7.45405e-21)
(1.36602 0.553798 4.49975e-20)
(1.32599 0.550589 -6.83189e-20)
(1.26012 0.536829 8.184e-20)
(1.19242 0.520386 8.77505e-20)
(1.1237 0.500684 -1.32997e-19)
(1.05419 0.47592 4.63832e-20)
(0.985548 0.444534 -3.02873e-19)
(0.929216 0.410728 -8.17826e-20)
(0.893048 0.381638 0)
(0.871553 0.357907 1.19374e-19)
(0.839117 0.331031 1.43148e-19)
(0.739718 0.281286 1.71273e-19)
(0.544994 0.201043 -2.05167e-19)
(0.321291 0.11588 -6.07138e-20)
(0.136573 0.0476975 7.12857e-20)
(0.0225653 0.00703211 0)
(-0.0083659 -0.00332053 -4.95875e-20)
(0.236215 0.105393 -3.70372e-20)
(1.11802 0.491775 1.69628e-20)
(1.32206 0.586466 -6.31961e-21)
(1.35714 0.612892 2.68331e-20)
(1.31567 0.607291 -3.04166e-20)
(1.24872 0.590205 -4.082e-21)
(1.1795 0.570329 -9.6016e-20)
(1.10878 0.54708 -4.81579e-20)
(1.03683 0.518598 -1.30545e-19)
(0.96537 0.483265 3.15049e-22)
(0.906371 0.445745 -2.5635e-19)
(0.868119 0.413788 2.16346e-19)
(0.844791 0.387868 -1.31349e-19)
(0.81089 0.358436 1.5799e-19)
(0.71461 0.304981 0)
(0.530921 0.220595 -1.11672e-19)
(0.319906 0.129896 1.42589e-22)
(0.14288 0.0565209 -3.11669e-19)
(0.0297798 0.0110807 -4.57381e-20)
(-0.0062022 -0.00276078 0)
(0.233473 0.114366 0)
(1.10787 0.537381 2.15834e-20)
(1.31281 0.641809 -2.0542e-21)
(1.34618 0.669111 -2.3973e-20)
(1.30347 0.661407 -3.91682e-20)
(1.2357 0.641356 0)
(1.16523 0.618396 -4.3468e-20)
(1.09277 0.591929 -1.05363e-21)
(1.01859 0.560038 2.79971e-19)
(0.944491 0.520994 -4.16392e-20)
(0.882942 0.479896 -1.85187e-19)
(0.842758 0.445218 1.12539e-19)
(0.817748 0.417117 -2.22907e-21)
(0.782462 0.385034 1.68177e-19)
(0.688531 0.327862 1.036e-19)
(0.515018 0.239273 -2.4134e-19)
(0.315335 0.143514 2.85675e-19)
(0.146115 0.065136 8.46154e-20)
(0.0352078 0.0151627 3.48672e-19)
(-0.00426464 -0.00208722 -9.31186e-19)
(0.231707 0.123259 -1.62648e-20)
(1.09748 0.580655 1.95051e-20)
(1.30233 0.694201 -1.10982e-20)
(1.33376 0.722419 1.7549e-20)
(1.28998 0.712839 0)
(1.22155 0.690155 -3.7262e-20)
(1.15004 0.664455 1.46428e-19)
(1.07604 0.635103 1.05676e-19)
(0.999821 0.600118 0)
(0.923185 0.557626 -6.0016e-19)
(0.859175 0.513142 5.0131e-19)
(0.817145 0.475797 0)
(0.790548 0.445391 1.53702e-19)
(0.753954 0.410473 -2.23467e-21)
(0.661867 0.349285 -3.31839e-19)
(0.496944 0.2562 1.2977e-19)
(0.307609 0.155753 0)
(0.145699 0.0726749 4.5659e-19)
(0.0381532 0.0186173 0)
(-0.00283285 -0.00150164 -4.4105e-19)
(0.230745 0.132155 2.06848e-20)
(1.08729 0.62178 2.87073e-20)
(1.291 0.743747 -1.00709e-20)
(1.32037 0.77282 0)
(1.27563 0.76157 -3.25894e-20)
(1.20669 0.736561 0)
(1.1343 0.708434 -1.44308e-19)
(1.05893 0.676527 -4.89961e-20)
(0.980806 0.638777 4.94162e-20)
(0.901716 0.593124 -2.96982e-19)
(0.835263 0.545445 5.17777e-20)
(0.79141 0.50535 0)
(0.763315 0.472437 -3.28398e-19)
(0.725372 0.434474 2.19186e-21)
(0.634434 0.368804 0)
(0.47682 0.270964 1.32889e-21)
(0.296748 0.165821 4.17882e-19)
(0.14202 0.0783562 -3.94503e-19)
(0.038519 0.0209197 1.1634e-19)
(-0.00201355 -0.00112781 0)
(0.230273 0.14093 0)
(1.07759 0.660848 3.67755e-20)
(1.27913 0.790594 1.99971e-20)
(1.30641 0.820365 -2.51229e-21)
(1.26081 0.807628 -1.02358e-20)
(1.19147 0.780573 -8.40615e-20)
(1.11833 0.750313 5.42594e-20)
(1.04172 0.716166 -5.79736e-20)
(0.961804 0.675973 2.20765e-19)
(0.880294 0.627482 -4.75076e-19)
(0.811352 0.576754 -3.96549e-21)
(0.765635 0.533785 -1.43772e-19)
(0.736081 0.498211 5.33065e-19)
(0.696716 0.456859 -2.59128e-21)
(0.606443 0.386204 -2.57711e-19)
(0.454822 0.283155 -4.58726e-19)
(0.283119 0.173474 0)
(0.135532 0.0819197 0)
(0.0369108 0.0219194 1.25584e-19)
(-0.00172368 -0.00102866 -7.36813e-20)
(0.230465 0.149709 3.15824e-20)
(1.06842 0.697732 -8.59251e-20)
(1.26701 0.83483 -2.15562e-20)
(1.2922 0.865139 0)
(1.24579 0.851072 -1.51779e-21)
(1.17615 0.822216 -7.64529e-20)
(1.10239 0.790102 1.3077e-19)
(1.02466 0.754015 2.28119e-19)
(0.94303 0.711704 2.87051e-19)
(0.859115 0.66071 -3.88276e-19)
(0.787572 0.607069 -4.31416e-19)
(0.739873 0.561167 3.84634e-19)
(0.708831 0.522776 0)
(0.667877 0.477438 -1.17177e-19)
(0.577776 0.401144 -2.78631e-19)
(0.430912 0.292451 -3.2966e-19)
(0.26715 0.178259 -3.89528e-19)
(0.126575 0.0832057 1.15062e-19)
(0.0337108 0.0217309 -6.75582e-20)
(-0.0018044 -0.00114567 2.89551e-22)
(0.230775 0.158428 0)
(1.05995 0.732915 0)
(1.25488 0.876559 2.49764e-21)
(1.27795 0.907271 0)
(1.23081 0.89199 2.10206e-20)
(1.16094 0.861549 5.14539e-20)
(1.08666 0.827827 0)
(1.00792 0.790085 2.70573e-20)
(0.924671 0.745974 4.79301e-19)
(0.838353 0.692824 -8.93055e-19)
(0.764044 0.636457 0)
(0.714166 0.587668 -2.47666e-19)
(0.681448 0.546157 -3.05358e-21)
(0.638715 0.496014 -2.38349e-21)
(0.548524 0.41331 2.9807e-19)
(0.40579 0.29865 -1.44528e-22)
(0.249338 0.180117 -8.38888e-19)
(0.115738 0.0822643 2.47467e-19)
(0.0292654 0.0204204 7.31201e-20)
(-0.00211722 -0.00140044 0)
(0.231191 0.167004 -1.32626e-19)
(1.05192 0.766442 -6.17924e-20)
(1.2428 0.915863 -7.36765e-20)
(1.26383 0.946878 5.02661e-20)
(1.21604 0.930458 2.20851e-20)
(1.14602 0.898635 0)
(1.07132 0.863536 7.90658e-20)
(0.991669 0.8244 -6.03856e-20)
(0.906878 0.778801 3.89698e-21)
(0.818164 0.723851 6.5833e-20)
(0.740896 0.665033 5.59082e-19)
(0.688544 0.613474 -8.69043e-20)
(0.653813 0.568361 -3.28695e-19)
(0.609067 0.512413 -1.36486e-19)
(0.518659 0.422434 1.61796e-19)
(0.379949 0.301563 4.19669e-23)
(0.230239 0.178969 2.25861e-19)
(0.103833 0.0792239 -5.32278e-19)
(0.024319 0.0182353 6.29085e-19)
(-0.00254982 -0.00176687 9.17298e-20)
(0.231513 0.175317 5.13386e-20)
(1.04432 0.798409 -3.54695e-20)
(1.23093 0.952842 6.22476e-21)
(1.24995 0.984092 3.85734e-20)
(1.20161 0.966585 2.03233e-21)
(1.1315 0.933548 -8.94605e-20)
(1.05648 0.89728 2.27637e-20)
(0.976016 0.856983 -2.51788e-19)
(0.88978 0.810189 -5.28801e-19)
(0.798678 0.753799 -5.32712e-19)
(0.718276 0.692923 0)
(0.663046 0.638732 -3.8174e-19)
(0.625813 0.589437 4.73837e-19)
(0.578691 0.526566 0)
(0.488106 0.428209 -3.46541e-19)
(0.353885 0.300777 2.06169e-19)
(0.211091 0.174639 -2.42759e-19)
(0.0921211 0.0744167 -2.86279e-19)
(0.0195567 0.0155656 -5.06504e-19)
(-0.002989 -0.00216659 -3.94912e-19)
(0.23218 0.183501 -5.89898e-20)
(1.03701 0.828803 3.79723e-20)
(1.21932 0.987567 8.45747e-20)
(1.23642 1.01898 6.03515e-20)
(1.18762 1.00047 -2.00432e-22)
(1.11749 0.966376 -4.74622e-20)
(1.04222 0.92911 7.62022e-20)
(0.961051 0.887877 -2.58726e-19)
(0.873463 0.840162 -3.13394e-19)
(0.780018 0.782692 5.57914e-19)
(0.696317 0.720226 1.22888e-18)
(0.637742 0.663552 0)
(0.597375 0.60955 0)
(0.547257 0.53856 -1.57128e-19)
(0.456506 0.430259 0)
(0.327753 0.295458 4.43053e-19)
(0.193164 0.166335 5.21754e-19)
(0.0825709 0.0678292 0)
(0.0162134 0.0128246 0)
(-0.00330078 -0.00250559 4.24167e-19)
(0.23251 0.191256 6.81602e-20)
(1.03001 0.857615 5.47697e-20)
(1.20802 1.02016 6.19718e-20)
(1.2233 1.05165 -6.28349e-20)
(1.17414 1.03221 -7.41608e-21)
(1.10404 0.997195 4.72776e-20)
(1.02862 0.959089 -1.0455e-19)
(0.94684 0.91711 -4.35137e-22)
(0.858007 0.868726 -5.06328e-21)
(0.762278 0.810536 -4.76803e-21)
(0.675164 0.746995 6.33113e-19)
(0.612753 0.688025 0)
(0.568491 0.628994 4.79974e-19)
(0.514386 0.548644 3.35366e-19)
(0.423128 0.428423 8.08056e-19)
(0.301038 0.284431 2.38584e-19)
(0.177753 0.151559 -2.80696e-19)
(0.079245 0.0566711 -1.64847e-19)
(0.0200067 0.00899893 0)
(-0.00155593 -0.00198509 4.55669e-19)
(0.233152 0.199024 -1.55918e-19)
(1.02329 0.884947 0)
(1.19703 1.05068 7.54507e-20)
(1.21061 1.0822 -5.50938e-20)
(1.16121 1.06191 1.90722e-20)
(1.0912 1.02609 -4.76005e-20)
(1.01572 0.987274 2.02133e-19)
(0.933418 0.944719 -2.11429e-20)
(0.843455 0.895891 0)
(0.74554 0.837314 -6.16073e-19)
(0.654957 0.773225 -1.37696e-18)
(0.588245 0.712261 5.63752e-20)
(0.539257 0.64814 6.62461e-19)
(0.479808 0.55724 0)
(0.386877 0.4232 5.45275e-19)
(0.271488 0.266819 0)
(0.163037 0.124839 0)
(0.0865558 0.0272792 -1.7816e-19)
(0.0517341 -0.00668728 0)
(0.0278859 0.0112219 1.22073e-19)
(0.233429 0.206204 -1.76169e-19)
(1.0168 0.91112 0)
(1.18634 1.07932 1.27747e-19)
(1.19833 1.11087 0)
(1.14881 1.08984 -1.45002e-20)
(1.07891 1.05336 0)
(1.00345 1.01398 9.76063e-21)
(0.92069 0.97104 3.56185e-20)
(0.829683 0.922018 3.93279e-20)
(0.729639 0.863416 -6.759e-19)
(0.635505 0.79933 4.13346e-20)
(0.563989 0.736896 4.53923e-19)
(0.509272 0.667841 6.46408e-19)
(0.442646 0.564938 8.71652e-20)
(0.345865 0.416146 4.27363e-19)
(0.234271 0.243597 0)
(0.137011 0.082112 5.91133e-19)
(0.0736199 -0.0192188 -3.45198e-19)
(0.0428695 0.0443579 4.01448e-19)
(-0.0690084 0.436559 -4.73401e-19)
(0.233696 0.213193 1.4703e-19)
(1.01028 0.935915 2.23746e-19)
(1.17587 1.10641 0)
(1.18629 1.13809 4.98559e-21)
(1.13672 1.11657 4.84218e-20)
(1.0669 1.07967 4.67481e-20)
(0.991499 1.04 6.93842e-20)
(0.908243 0.997008 0)
(0.816158 0.94819 2.60528e-19)
(0.713903 0.890145 -3.52677e-20)
(0.615896 0.826773 0)
(0.538742 0.763649 0)
(0.47661 0.689656 5.79249e-19)
(0.400594 0.572292 -2.69464e-19)
(0.296936 0.409327 -4.33058e-19)
(0.18449 0.218325 0)
(0.0799165 0.0882276 2.97809e-19)
(0.00391037 0.438963 -3.44229e-19)
(0.0334104 1.8904 -1.88635e-19)
(0.0626964 2.81175 -2.4115e-19)
(0.233785 0.219359 -1.11812e-19)
(1.00393 0.959517 -2.89611e-19)
(1.16563 1.13192 7.73263e-20)
(1.1745 1.16375 5.94068e-20)
(1.12496 1.14186 0)
(1.05525 1.10474 2.1396e-20)
(0.980062 1.06502 9.3379e-20)
(0.896269 1.02219 -1.72167e-20)
(0.80315 0.973895 3.89141e-20)
(0.698715 0.916893 6.44418e-19)
(0.596723 0.85489 6.96825e-19)
(0.513428 0.792173 5.08996e-19)
(0.442091 0.713584 5.82932e-19)
(0.355296 0.578221 -6.33371e-19)
(0.245692 0.406551 -6.54075e-19)
(0.123938 0.25942 0)
(0.0437223 0.828161 0)
(0.10107 2.5506 1.64582e-19)
(0.102186 3.20157 0)
(0.105379 3.3883 3.92514e-19)
(0.236424 0.225022 0)
(0.998343 0.982132 0)
(1.15538 1.15571 0)
(1.16274 1.18768 1.87741e-20)
(1.11321 1.16548 4.60724e-20)
(1.04374 1.12844 2.40423e-21)
(0.969034 1.08894 5.94891e-20)
(0.884727 1.04649 -1.67811e-20)
(0.790627 0.999002 3.25241e-19)
(0.684109 0.943525 -9.14287e-21)
(0.578145 0.883584 1.37725e-18)
(0.48835 0.822366 -5.87393e-20)
(0.405872 0.740517 7.06327e-20)
(0.309492 0.580517 9.16603e-20)
(0.182638 0.419428 -5.04169e-21)
(0.0998221 0.960279 1.84304e-21)
(0.140139 2.721 -8.68553e-19)
(0.148274 3.29257 -3.25768e-19)
(0.137235 3.42587 1.68508e-19)
(0.124677 3.44812 -1.8757e-19)
(0.154894 0.18207 6.72257e-20)
(0.987472 1.00652 0)
(1.14478 1.17796 -1.59007e-19)
(1.15154 1.21037 -1.66394e-19)
(1.10234 1.18824 1.22292e-19)
(1.03329 1.15146 2.83595e-21)
(0.958371 1.11183 -6.05408e-20)
(0.873728 1.07004 1.85381e-19)
(0.778756 1.02368 -2.66244e-19)
(0.670371 0.970215 0)
(0.560573 0.913075 6.7682e-19)
(0.464064 0.854147 -4.1576e-19)
(0.369195 0.772914 0)
(0.257063 0.580811 8.55161e-20)
(0.145139 0.748202 2.04815e-19)
(0.155859 2.4929 -2.38246e-19)
(0.212893 3.32264 2.67234e-19)
(0.192911 3.43869 1.43758e-19)
(0.160508 3.46039 1.61413e-19)
(0.138737 3.47077 2.56501e-19)
(0.279513 0.263351 -1.21851e-19)
(0.972345 1.01647 0)
(1.12681 1.20343 1.75869e-19)
(1.13694 1.24085 1.87309e-19)
(1.08513 1.22129 -1.44066e-19)
(1.01533 1.1849 -2.66688e-20)
(0.939484 1.1469 5.32405e-20)
(0.854337 1.10635 1.45511e-20)
(0.758077 1.06219 2.53852e-19)
(0.647001 1.0127 5.57075e-19)
(0.532083 0.961923 3.81884e-20)
(0.425228 0.908859 3.69988e-19)
(0.301988 0.811727 6.62715e-20)
(0.21364 0.925802 -8.41813e-20)
(0.230085 2.34136 -1.91041e-19)
(0.291625 3.32496 1.82792e-19)
(0.274601 3.46767 -2.01749e-19)
(0.239087 3.48972 -1.16367e-19)
(0.201904 3.51754 -9.77005e-20)
(0.150349 3.51172 -1.14469e-20)
(0.267433 0.260265 0)
(0.970081 1.0392 5.27835e-20)
(1.11858 1.22695 -3.68904e-20)
(1.12642 1.26452 -2.30346e-20)
(1.07442 1.2445 -1.03487e-19)
(1.00458 1.20834 3.13948e-20)
(0.928422 1.17049 -2.6131e-20)
(0.843086 1.13075 1.30159e-20)
(0.746324 1.08808 -2.64335e-19)
(0.634006 1.04147 -1.38214e-20)
(0.516375 0.995534 -1.22539e-18)
(0.404632 0.947192 5.28181e-20)
(0.284658 0.876702 -6.25164e-20)
(0.255719 1.477 -7.78751e-20)
(0.331303 3.0977 1.81023e-20)
(0.350856 3.46517 3.69361e-22)
(0.310395 3.52176 2.91063e-19)
(0.27294 3.54861 1.41502e-19)
(0.224154 3.57227 -3.38449e-20)
(0.165073 3.56843 -5.31925e-20)
(0.251235 0.25876 1.35467e-19)
(0.966242 1.06461 3.62104e-19)
(1.10995 1.25257 -1.0605e-19)
(1.11533 1.28959 -8.69203e-20)
(1.06309 1.26905 0)
(0.993402 1.23296 7.60342e-20)
(0.917231 1.19535 -2.27575e-20)
(0.831984 1.1564 1.13663e-20)
(0.735037 1.11531 -2.94672e-20)
(0.621999 1.07182 -5.0412e-19)
(0.502483 1.03113 -5.65511e-19)
(0.387451 0.986804 -4.32211e-19)
(0.2869 1.00432 -4.74039e-19)
(0.325537 2.1942 4.89107e-19)
(0.418587 3.37395 4.08303e-19)
(0.395491 3.52293 0)
(0.349791 3.56835 0)
(0.31161 3.60956 -2.61696e-20)
(0.260534 3.67008 0)
(0.177529 3.64631 -2.62967e-20)
(0.240561 0.260687 -2.0488e-19)
(0.960457 1.09113 -3.09924e-19)
(1.09988 1.27938 0)
(1.10287 1.31539 5.96901e-21)
(1.05049 1.29421 -1.1912e-19)
(0.981099 1.25806 1.34502e-19)
(0.905252 1.22074 -5.78527e-21)
(0.820298 1.18248 6.32807e-21)
(0.723403 1.1429 -1.86547e-19)
(0.610058 1.1025 2.51944e-20)
(0.489578 1.06725 0)
(0.369795 1.02811 0)
(0.308645 1.2582 -4.3273e-19)
(0.409626 2.87452 1.75912e-19)
(0.490857 3.48218 2.2403e-19)
(0.442465 3.5557 0)
(0.401692 3.61995 -7.69598e-21)