/*--------------------------------*- C++ -*----------------------------------*\
  =========                 |
  \\      /  F ield         | OpenFOAM: The Open Source CFD Toolbox
   \\    /   O peration     | Website:  https://openfoam.org
    \\  /    A nd           | Version:  9
     \\/     M anipulation  |
\*---------------------------------------------------------------------------*/
FoamFile
{
    format      ascii;
    class       volScalarField;
    location    "60";
    object      p;
}
// * * * * * * * * * * * * * * * * * * * * * * * * * * * * * * * * * * * * * //

dimensions      [0 2 -2 0 0 0 0];

internalField   nonuniform List<scalar> 
8800
(
0.785233
0.737447
0.698758
0.669765
0.648903
0.634077
0.623487
0.616016
0.611211
0.609173
0.610463
0.614671
0.621329
0.630654
0.643441
0.661179
0.68596
0.719903
0.762454
0.821156
0.616481
0.624159
0.631636
0.634946
0.633444
0.628369
0.621888
0.615818
0.611107
0.608281
0.608024
0.61055
0.615055
0.621012
0.62779
0.634075
0.637719
0.636985
0.631568
0.622879
0.594882
0.601041
0.605169
0.608115
0.610167
0.610775
0.609675
0.607581
0.60558
0.604694
0.60568
0.608082
0.610895
0.613086
0.6137
0.612506
0.610168
0.606778
0.60222
0.59846
0.589068
0.591719
0.594472
0.596876
0.598513
0.599679
0.600427
0.600556
0.600277
0.600251
0.601029
0.602221
0.603076
0.603152
0.60255
0.601464
0.599652
0.597084
0.594683
0.593179
0.583683
0.585108
0.586888
0.588921
0.590708
0.592053
0.593049
0.593859
0.594492
0.595083
0.595763
0.596283
0.5964
0.596124
0.595436
0.594193
0.592502
0.590657
0.589352
0.58852
0.578601
0.579522
0.580763
0.582331
0.583966
0.585495
0.586788
0.587868
0.588854
0.589777
0.5905
0.590854
0.590832
0.590406
0.589536
0.588343
0.587021
0.585764
0.584944
0.584392
0.573688
0.574358
0.57532
0.576624
0.578035
0.579497
0.580945
0.582282
0.583503
0.584645
0.585504
0.585903
0.585841
0.585348
0.584554
0.583614
0.582608
0.581689
0.581105
0.580699
0.568896
0.569413
0.570197
0.571328
0.572607
0.573985
0.57544
0.576928
0.578381
0.579755
0.580805
0.581311
0.581311
0.580945
0.580356
0.57964
0.578874
0.578195
0.577763
0.577445
0.564155
0.564566
0.565222
0.566229
0.567436
0.568768
0.570222
0.571794
0.573443
0.575083
0.576377
0.577075
0.577268
0.57712
0.576753
0.576248
0.575686
0.575199
0.574878
0.57462
0.559378
0.559712
0.560279
0.561207
0.562365
0.563682
0.565172
0.566842
0.568678
0.570607
0.572219
0.573211
0.57368
0.573784
0.573645
0.573363
0.572995
0.572668
0.572431
0.572214
0.554476
0.554754
0.555259
0.556141
0.557281
0.558622
0.560185
0.561995
0.564059
0.566322
0.568335
0.569705
0.570506
0.570897
0.571009
0.570951
0.570775
0.570588
0.570419
0.570231
0.549362
0.549595
0.550062
0.550927
0.552089
0.553498
0.555176
0.557179
0.559537
0.562215
0.564718
0.566543
0.56773
0.568452
0.568843
0.569017
0.569033
0.568975
0.568862
0.568695
0.543944
0.544142
0.544589
0.545468
0.546693
0.548213
0.550062
0.552325
0.555056
0.558256
0.561354
0.563719
0.565359
0.566457
0.567163
0.567581
0.567808
0.56787
0.567803
0.56765
0.538121
0.538291
0.538735
0.539656
0.540986
0.542669
0.544755
0.547358
0.550564
0.554409
0.558228
0.561239
0.563411
0.564941
0.566003
0.566718
0.567151
0.567329
0.567302
0.567158
0.531776
0.531922
0.532379
0.533372
0.534852
0.536757
0.539158
0.542195
0.545999
0.550637
0.555329
0.559111
0.561914
0.563953
0.56542
0.566455
0.567125
0.567425
0.567436
0.567296
0.524771
0.524892
0.525376
0.526473
0.528155
0.530353
0.533156
0.536746
0.541293
0.5469
0.552648
0.557352
0.560903
0.563541
0.565487
0.566893
0.567825
0.56825
0.568294
0.568154
0.516926
0.517025
0.517552
0.51879
0.520732
0.5233
0.526618
0.530903
0.536371
0.543164
0.550185
0.555988
0.56042
0.563765
0.566283
0.568121
0.569346
0.569903
0.569979
0.569836
0.508015
0.508116
0.508697
0.510092
0.512365
0.515416
0.519388
0.524546
0.531157
0.539399
0.547948
0.555056
0.560528
0.564701
0.567898
0.570241
0.571797
0.572492
0.572598
0.572448
0.497728
0.49781
0.498482
0.500102
0.502809
0.506478
0.511278
0.517533
0.525565
0.535577
0.545956
0.5546
0.561296
0.566444
0.570417
0.573355
0.575286
0.576128
0.57626
0.576099
0.485697
0.485764
0.486535
0.488467
0.491731
0.496196
0.502054
0.509701
0.519501
0.531666
0.544226
0.554674
0.562792
0.569075
0.573951
0.577581
0.57992
0.580911
0.581063
0.580888
0.471369
0.471425
0.472338
0.474685
0.478686
0.484197
0.491437
0.500868
0.512884
0.527669
0.542805
0.555347
0.565088
0.57268
0.5786
0.583006
0.585782
0.586916
0.58708
0.586888
0.453984
0.454028
0.455155
0.458084
0.463095
0.470022
0.479102
0.490856
0.50566
0.523618
0.541766
0.556695
0.568277
0.577336
0.584422
0.589691
0.592914
0.594172
0.594336
0.594123
0.432387
0.432429
0.433903
0.437713
0.444178
0.453099
0.464702
0.479524
0.497845
0.519613
0.541224
0.558817
0.572434
0.583118
0.591455
0.597654
0.601295
0.602638
0.602784
0.60255
0.404847
0.404909
0.406969
0.412197
0.420918
0.432766
0.447925
0.466821
0.489533
0.515803
0.541318
0.561817
0.577618
0.590039
0.599727
0.606834
0.610815
0.612177
0.612284
0.612028
0.368338
0.368499
0.371764
0.379608
0.392133
0.408451
0.428678
0.452926
0.481014
0.512473
0.542266
0.565829
0.583897
0.598105
0.609174
0.617077
0.621245
0.622535
0.622579
0.622306
0.317068
0.318043
0.324533
0.337745
0.356883
0.380112
0.407323
0.438333
0.47276
0.509984
0.544291
0.570978
0.591314
0.607255
0.619625
0.628109
0.63224
0.633353
0.633322
0.633038
0.242135
0.249386
0.264396
0.287656
0.316657
0.349143
0.384897
0.423699
0.465161
0.508643
0.547797
0.577845
0.600632
0.618476
0.632118
0.641008
0.644968
0.64589
0.645813
0.645566
0.161577
0.178741
0.203067
0.237031
0.276272
0.31815
0.362514
0.409299
0.458203
0.508645
0.553569
0.587813
0.613637
0.633783
0.648948
0.658024
0.661498
0.662145
0.662088
0.661931
0.0944421
0.11466
0.146688
0.189743
0.238032
0.288761
0.34148
0.396108
0.452318
0.509521
0.55995
0.598122
0.626781
0.648905
0.664979
0.673878
0.677004
0.677579
0.677576
0.677468
0.039463
0.0613348
0.0988691
0.148352
0.203797
0.261989
0.322103
0.383925
0.446995
0.510647
0.566324
0.608191
0.639425
0.66326
0.68025
0.689275
0.69233
0.692963
0.692996
0.692915
-0.00630105
0.016749
0.0580663
0.112653
0.173847
0.238201
0.304667
0.372896
0.442269
0.511966
0.572621
0.617996
0.651687
0.677218
0.695192
0.704652
0.707946
0.708472
0.708527
0.708474
-0.0451178
-0.0214026
0.0227765
0.0814068
0.147438
0.21704
0.289032
0.36296
0.438071
0.513397
0.578766
0.627505
0.663582
0.690789
0.709799
0.719914
0.723393
0.723961
0.724027
0.724003
-0.0790106
-0.0548603
-0.00841599
0.0535484
0.123666
0.197832
0.27472
0.353788
0.434183
0.514789
0.584641
0.636606
0.674975
0.703831
0.723826
0.734564
0.738361
0.739015
0.739104
0.7391
-0.109473
-0.0849404
-0.0366512
0.0281624
0.101804
0.179969
0.261252
0.345019
0.430322
0.515917
0.590051
0.645105
0.685651
0.716016
0.737001
0.748311
0.752428
0.753235
0.753328
0.753331
-0.137469
-0.112591
-0.0627247
0.00454492
0.0812878
0.163
0.248236
0.336305
0.4262
0.516549
0.594822
0.652853
0.695467
0.727226
0.749099
0.760928
0.765315
0.766252
0.766332
0.766327
-0.163798
-0.138529
-0.0872072
-0.0178237
0.0616856
0.14656
0.235368
0.327398
0.421605
0.516521
0.598842
0.659779
0.704375
0.737441
0.760036
0.772247
0.776835
0.777851
0.777923
0.777902
-0.188838
-0.163166
-0.110613
-0.03928
0.0426859
0.130398
0.222444
0.318125
0.416388
0.515714
0.602038
0.665883
0.712407
0.746668
0.769836
0.782332
0.787012
0.788068
0.78812
0.788075
-0.213009
-0.186824
-0.133241
-0.0600706
0.0240803
0.114336
0.209325
0.308363
0.410435
0.514029
0.604365
0.671175
0.719645
0.755043
0.778716
0.791285
0.79599
0.797041
0.79706
0.796993
-0.236449
-0.209839
-0.155148
-0.0803651
0.00573854
0.0982761
0.195921
0.298043
0.403681
0.511407
0.605792
0.67569
0.726199
0.762713
0.786749
0.799301
0.803942
0.80495
0.804956
0.804867
-0.259291
-0.232185
-0.17647
-0.100257
-0.0124028
0.0821711
0.182202
0.28713
0.396089
0.507793
0.606274
0.679454
0.732176
0.769863
0.794173
0.806565
0.811037
0.811961
0.811924
0.811813
-0.281669
-0.25401
-0.197304
-0.119779
-0.0303763
0.0660122
0.168175
0.275635
0.38765
0.503148
0.605759
0.682466
0.73769
0.776659
0.801145
0.813211
0.817378
0.818159
0.818072
0.81794
-0.303611
-0.275307
-0.217685
-0.138939
-0.0481564
0.0498224
0.153876
0.263594
0.378385
0.497445
0.604186
0.684693
0.742798
0.78328
0.807881
0.819374
0.823042
0.823609
0.823473
0.823331
-0.324964
-0.29605
-0.23755
-0.157717
-0.0657179
0.0336606
0.139359
0.251071
0.368344
0.490698
0.601483
0.686062
0.7475
0.789908
0.814682
0.82531
0.828162
0.828387
0.828198
0.82806
-0.34571
-0.316216
-0.256891
-0.176073
-0.0830084
0.0175803
0.12471
0.238141
0.357598
0.482926
0.597599
0.686455
0.751725
0.79666
0.821963
0.831542
0.833062
0.832594
0.832307
0.832226
-0.365919
-0.335771
-0.275685
-0.193979
-0.0999694
0.00166041
0.11001
0.224902
0.346235
0.474189
0.592481
0.685718
0.755298
0.80348
0.830111
0.838962
0.838631
0.83664
0.835962
0.836171
-0.385422
-0.354698
-0.293879
-0.211378
-0.116546
-0.0140194
0.0953521
0.21146
0.334365
0.464576
0.586116
0.683673
0.757948
0.810035
0.839135
0.848587
0.846841
0.842437
0.839902
0.839555
-0.404316
-0.372985
-0.311493
-0.2283
-0.132771
-0.0295014
0.0806807
0.197761
0.321925
0.454015
0.578368
0.680044
0.759374
0.815818
0.848418
0.860729
0.860122
0.853491
0.845554
0.831605
-0.422526
-0.39062
-0.328642
-0.244948
-0.148924
-0.04511
0.0655903
0.183336
0.308393
0.441889
0.568612
0.674075
0.759044
0.820142
0.856299
0.873296
0.87442
0.86169
0.841741
0.830354
-0.439881
-0.407742
-0.345134
-0.261122
-0.164656
-0.060507
0.050303
0.168502
0.294067
0.428445
0.556896
0.665267
0.756095
0.821828
0.858624
0.875459
0.879095
0.855466
0.787871
0.757577
-0.455718
-0.425602
-0.360647
-0.276339
-0.179175
-0.0751942
0.0351334
0.153487
0.279161
0.413802
0.543137
0.653289
0.749051
0.820166
0.850333
0.861894
0.850083
0.795373
0.726255
0.683756
-0.510995
-0.441354
-0.374704
-0.291731
-0.19411
-0.0906356
0.020013
0.138006
0.263301
0.397494
0.526706
0.637455
0.733954
0.811582
0.815342
0.816976
0.765978
0.694838
0.617892
0.575084
-0.472458
-0.456478
-0.395694
-0.311685
-0.216213
-0.112793
-0.0031815
0.114144
0.238426
0.371171
0.498441
0.607574
0.696335
0.778962
0.764348
0.649317
0.543029
0.46911
0.395305
0.425415
-0.503171
-0.473931
-0.412246
-0.329069
-0.233607
-0.130314
-0.0204452
0.0962289
0.219424
0.350342
0.474787
0.579681
0.65879
0.702846
0.65327
0.502765
0.373884
0.281808
0.182719
0.232399
-0.526815
-0.494642
-0.431751
-0.348428
-0.25285
-0.149665
-0.0398906
0.0759356
0.197709
0.326197
0.446857
0.545503
0.615703
0.625082
0.517273
0.34333
0.189792
0.0703652
-0.0610861
-0.028447
-0.54994
-0.516239
-0.45217
-0.367926
-0.272271
-0.169243
-0.0600039
0.0548418
0.174996
0.300668
0.416581
0.507332
0.562227
0.539866
0.380259
0.183163
-0.00769688
-0.175978
-0.364666
-0.383305
-0.572466
-0.538315
-0.473355
-0.388335
-0.292542
-0.189743
-0.0811655
0.0325747
0.15085
0.273303
0.383757
0.466538
0.501741
0.443099
0.249888
0.0388144
-0.178784
-0.368249
-0.610271
-0.907581
-0.595281
-0.561122
-0.495622
-0.410116
-0.31414
-0.211516
-0.103531
0.009067
0.125352
0.244319
0.34901
0.423221
0.437236
0.327514
0.136455
-0.0739017
-0.278496
-0.451014
-0.520567
-0.599533
-0.619338
-0.585111
-0.519312
-0.433579
-0.337556
-0.235202
-0.127903
-0.0166224
0.0973534
0.212302
0.310814
0.373909
0.362901
0.219527
0.035659
-0.155665
-0.318837
-0.411984
-0.436161
-0.452062
-0.644941
-0.610584
-0.544594
-0.458798
-0.362916
-0.261007
-0.154637
-0.0449777
0.0662687
0.176549
0.2684
0.317292
0.288587
0.119263
-0.0556679
-0.22192
-0.348747
-0.387974
-0.400866
-0.402191
-0.672288
-0.637714
-0.57153
-0.485768
-0.390169
-0.288934
-0.183748
-0.0760469
0.0320349
0.137068
0.221359
0.255834
0.207462
0.0266533
-0.139207
-0.288031
-0.364412
-0.381596
-0.382936
-0.382747
-0.701438
-0.666563
-0.600142
-0.514484
-0.419328
-0.318968
-0.215239
-0.109842
-0.00533538
0.0939416
0.16977
0.192469
0.107975
-0.0579564
-0.21549
-0.338115
-0.374933
-0.373305
-0.372411
-0.371807
-0.732101
-0.696942
-0.630321
-0.544852
-0.4503
-0.351051
-0.249074
-0.146334
-0.0458055
0.0472766
0.114516
0.120325
0.0172721
-0.136653
-0.276089
-0.351691
-0.362277
-0.365174
-0.365945
-0.365679
-0.763722
-0.728407
-0.661806
-0.576639
-0.482893
-0.38502
-0.285097
-0.185389
-0.0891965
-0.0025705
0.0560483
0.0469134
-0.0642645
-0.203621
-0.320537
-0.352336
-0.360525
-0.361953
-0.361788
-0.361533
-0.795825
-0.760396
-0.694145
-0.609442
-0.516758
-0.420548
-0.323025
-0.226715
-0.135232
-0.0549032
-0.0066218
-0.0223921
-0.139056
-0.25875
-0.351909
-0.367502
-0.359734
-0.358856
-0.358804
-0.358588
-0.827507
-0.792169
-0.72644
-0.642659
-0.551339
-0.457153
-0.362401
-0.269837
-0.183442
-0.109137
-0.070591
-0.0858582
-0.204035
-0.303036
-0.355186
-0.365013
-0.360989
-0.358638
-0.357614
-0.357248
-0.857178
-0.82254
-0.757711
-0.675356
-0.585855
-0.494125
-0.402561
-0.314074
-0.233018
-0.164738
-0.129363
-0.15626
-0.254732
-0.343078
-0.350524
-0.36263
-0.36218
-0.358201
-0.35662
-0.355907
-0.883219
-0.84967
-0.786815
-0.706314
-0.619251
-0.530509
-0.442625
-0.35857
-0.282865
-0.220888
-0.185361
-0.223224
-0.294706
-0.356867
-0.392856
-0.375893
-0.365722
-0.36197
-0.360739
-0.359907
-0.903484
-0.871657
-0.811675
-0.734097
-0.650213
-0.565128
-0.481479
-0.402267
-0.331922
-0.276365
-0.243482
-0.27983
-0.319365
-0.353104
-0.397131
-0.385799
-0.382029
-0.383639
-0.383295
-0.382155
-0.915688
-0.886572
-0.830328
-0.756798
-0.677202
-0.596608
-0.517855
-0.443899
-0.379131
-0.329891
-0.299865
-0.335288
-0.340078
-0.309996
-0.328067
-0.38597
-0.42029
-0.429597
-0.428178
-0.428448
-0.917148
-0.892104
-0.840785
-0.772549
-0.698462
-0.623481
-0.550301
-0.48207
-0.423188
-0.380221
-0.349101
-0.402094
-0.442426
-0.399871
-0.419169
-0.452526
-0.461515
-0.459472
-0.458231
-0.459032
-0.90568
-0.885503
-0.840829
-0.779691
-0.712439
-0.644133
-0.577358
-0.515174
-0.462365
-0.425468
-0.398085
-0.473542
-0.623152
-0.806041
-0.727763
-0.587706
-0.509988
-0.481303
-0.472229
-0.469437
-0.879184
-0.863982
-0.82861
-0.776926
-0.71807
-0.65745
-0.59761
-0.541516
-0.49428
-0.462646
-0.435983
-0.488217
-0.598111
-0.83445
-0.756609
-0.546315
-0.440962
-0.409528
-0.399126
-0.394685
-0.840125
-0.830301
-0.804833
-0.764377
-0.71527
-0.663076
-0.610174
-0.559759
-0.516345
-0.487844
-0.461108
-0.37355
-0.191648
-0.0624401
-0.0933262
-0.169037
-0.237306
-0.263258
-0.266297
-0.264422
-0.79515
-0.789573
-0.77432
-0.744786
-0.705968
-0.66176
-0.615371
-0.569083
-0.527485
-0.496188
-0.462769
-0.293744
0.011668
0.415725
0.359906
0.0787979
-0.130024
-0.227267
-0.263027
-0.272914
-0.75405
-0.750675
-0.743285
-0.723624
-0.693161
-0.655754
-0.614426
-0.570948
-0.528132
-0.494061
-0.472513
-0.435956
-0.519735
-0.696614
-0.937215
-1.16742
-1.17792
-1.0418
-0.8924
-0.868697
-0.723843
-0.721677
-0.717865
-0.705647
-0.681424
-0.648547
-0.609858
-0.566554
-0.520931
-0.480369
-0.460414
-0.591565
-1.09091
-1.8948
-2.52065
-2.59573
-2.36584
-2.03045
-1.76183
-1.65531
-0.700842
-0.699993
-0.69871
-0.692558
-0.673676
-0.64303
-0.604066
-0.558224
-0.506995
-0.447166
-0.400389
-0.397907
-0.591977
-0.757894
-0.836926
-0.766381
-0.540928
-0.327195
-0.189804
-0.134678
-0.687515
-0.687169
-0.686529
-0.683692
-0.669863
-0.640115
-0.598581
-0.548606
-0.487804
-0.41564
-0.340078
-0.251778
-0.134048
0.127899
0.450104
0.811296
1.11948
1.29936
1.37534
1.39638
-0.678875
-0.678524
-0.677592
-0.676448
-0.668333
-0.640233
-0.595693
-0.53956
-0.472176
-0.388383
-0.281095
-0.169775
0.06663
0.525202
1.02222
1.48325
1.8199
1.9852
2.04865
2.06234
-0.675556
-0.675235
-0.67451
-0.674352
-0.67033
-0.644585
-0.595847
-0.534314
-0.459511
-0.362067
-0.246901
-0.124042
0.110867
0.562722
1.03902
1.46238
1.7574
1.9048
1.95409
1.96292
-0.674842
-0.675563
-0.677645
-0.68064
-0.678916
-0.651532
-0.599767
-0.534526
-0.452919
-0.352906
-0.237919
-0.116341
0.0610216
0.440377
0.814096
1.1416
1.3671
1.47547
1.51015
1.51616
-0.670287
-0.671192
-0.672499
-0.673605
-0.671895
-0.650084
-0.60609
-0.540458
-0.455005
-0.352544
-0.244124
-0.135934
-0.00270576
0.277304
0.548907
0.763511
0.905902
0.972453
0.997851
1.00429
-0.682427
-0.679884
-0.665802
-0.638475
-0.624427
-0.636248
-0.618735
-0.553497
-0.463518
-0.360042
-0.260565
-0.167542
-0.0635275
0.130547
0.312741
0.445708
0.529223
0.57181
0.594225
0.602782
-0.73752
-0.732198
-0.719047
-0.699827
-0.691773
-0.698752
-0.663141
-0.577323
-0.473896
-0.367062
-0.278568
-0.207915
-0.134209
0.0199239
0.158663
0.253425
0.31585
0.351116
0.370729
0.377319
-0.853677
-0.864671
-0.895832
-0.925086
-0.919429
-0.874988
-0.751503
-0.610257
-0.480922
-0.371469
-0.290958
-0.235447
-0.179778
-0.0602887
0.0511169
0.136891
0.197143
0.232384
0.248689
0.252852
-0.961526
-0.984079
-1.0268
-1.05559
-1.04617
-0.975968
-0.800989
-0.620435
-0.475845
-0.365402
-0.290599
-0.246178
-0.206499
-0.101134
-0.00595075
0.0649684
0.119937
0.152319
0.165846
0.167762
-0.908287
-0.930776
-0.966795
-0.994727
-0.98625
-0.9044
-0.734595
-0.572892
-0.440867
-0.340962
-0.274365
-0.235101
-0.196605
-0.115863
-0.0419461
0.0134044
0.0551159
0.0786845
0.0877268
0.0891459
-0.64926
-0.668772
-0.702738
-0.734792
-0.736774
-0.674378
-0.566758
-0.461389
-0.372081
-0.297674
-0.242077
-0.20178
-0.159937
-0.107672
-0.0590333
-0.0185733
0.0130917
0.0315087
0.0389705
0.0387607
-0.303808
-0.314355
-0.335591
-0.363647
-0.384586
-0.379795
-0.358763
-0.324598
-0.286137
-0.243701
-0.203217
-0.164445
-0.127983
-0.0957752
-0.0657804
-0.0384841
-0.0170144
-0.00405129
0.000327186
-0.000434207
-0.0434248
-0.048074
-0.0621458
-0.0886811
-0.125425
-0.163381
-0.189976
-0.20412
-0.203488
-0.188805
-0.164406
-0.136735
-0.113031
-0.0960677
-0.0757599
-0.0562945
-0.0406677
-0.0319633
-0.029564
-0.0311415
0.080721
0.0783343
0.068333
0.0446249
0.00546066
-0.0421561
-0.0861275
-0.119955
-0.139357
-0.143063
-0.132623
-0.116745
-0.10637
-0.100868
-0.0893602
-0.0770767
-0.0671339
-0.0628465
-0.0628153
-0.0645749
0.11095
0.109306
0.101944
0.083521
0.0516733
0.0108096
-0.0315558
-0.0689073
-0.095947
-0.10953
-0.108969
-0.102749
-0.100879
-0.104117
-0.102135
-0.0996956
-0.0984835
-0.101094
-0.102802
-0.103863
0.0993571
0.0981904
0.0930495
0.0800903
0.0572293
0.0265441
-0.00810028
-0.0416475
-0.0697845
-0.088368
-0.0935023
-0.0910576
-0.0927795
-0.102246
-0.1106
-0.117853
-0.125396
-0.132149
-0.135179
-0.135683
0.0750037
0.0742156
0.0707533
0.0619897
0.0461774
0.023981
-0.00290036
-0.0310881
-0.0573862
-0.0779385
-0.0866198
-0.0849303
-0.084908
-0.101042
-0.118687
-0.131535
-0.141947
-0.148975
-0.151388
-0.15178
0.0499922
0.0494812
0.0471593
0.041252
0.0303436
0.0143639
-0.00618277
-0.0296252
-0.0541946
-0.0773023
-0.0925982
-0.0963039
-0.097291
-0.116045
-0.132526
-0.144184
-0.152035
-0.156251
-0.157603
-0.158104
0.0287494
0.0283626
0.0267868
0.022735
0.0150746
0.00335367
-0.0126541
-0.0325562
-0.0561294
-0.0837458
-0.111949
-0.135411
-0.147896
-0.157923
-0.161834
-0.162812
-0.163829
-0.164204
-0.164632
-0.165276
0.0126281
0.012333
0.0111932
0.00836432
0.00285959
-0.00591534
-0.0186222
-0.0357896
-0.058754
-0.0909928
-0.135444
-0.188964
-0.218499
-0.21174
-0.195244
-0.184662
-0.179858
-0.178731
-0.178574
-0.178873
0.00172677
0.00150908
0.000681201
-0.00130684
-0.00522334
-0.0118196
-0.0218847
-0.0364959
-0.0579302
-0.0921645
-0.146057
-0.218516
-0.254865
-0.232342
-0.206645
-0.19386
-0.189887
-0.18939
-0.188848
-0.188569
-0.00434785
-0.00451346
-0.00510124
-0.00645841
-0.00916157
-0.0139229
-0.0216067
-0.0334506
-0.051817
-0.0826858
-0.133222
-0.198912
-0.222358
-0.199752
-0.181755
-0.177322
-0.179209
-0.180789
-0.180109
-0.17939
-0.00625731
-0.00637751
-0.00676043
-0.00755505
-0.00926113
-0.0124058
-0.0176802
-0.0260992
-0.0395021
-0.0621157
-0.0978974
-0.138298
-0.144428
-0.134324
-0.12893
-0.134088
-0.140775
-0.14346
-0.142994
-0.142007
-0.0048709
-0.00492408
-0.00509236
-0.00548542
-0.00633801
-0.00800039
-0.0108898
-0.015596
-0.0231012
-0.0356764
-0.0530042
-0.0670999
-0.0648556
-0.0603984
-0.0660709
-0.0751728
-0.0816905
-0.0837397
-0.0833396
-0.0829062
-0.00127965
-0.00125534
-0.00128845
-0.00127373
-0.00120612
-0.00127434
-0.00162341
-0.00231647
-0.00345261
-0.00518737
-0.00711702
-0.00670067
-0.00972874
-0.00943067
-0.0121066
-0.0162703
-0.0171207
-0.0154684
-0.0156782
-0.0158431
-0.136814
0.0297611
0.224111
0.393735
0.529125
0.635573
0.723505
0.798407
0.83262
0.809363
0.164885
0.285301
0.414819
0.526687
0.620893
0.698779
0.761841
0.806639
0.829065
0.841192
0.383047
0.465621
0.554138
0.632257
0.699416
0.755602
0.800298
0.832973
0.856619
0.874635
0.543402
0.602518
0.663907
0.72084
0.770331
0.812371
0.846919
0.874497
0.897242
0.915563
0.668521
0.711504
0.757353
0.801037
0.839641
0.87337
0.902253
0.926306
0.946663
0.964511
0.772641
0.805442
0.843479
0.878948
0.911517
0.940723
0.966253
0.987721
1.00556
1.02291
0.865065
0.893715
0.927635
0.959728
0.989642
1.01679
1.04052
1.06022
1.07572
1.0928
0.953579
0.982756
1.01673
1.04875
1.07833
1.10491
1.12776
1.14624
1.1596
1.17663
1.04885
1.08204
1.11866
1.15223
1.18226
1.20844
1.23038
1.24766
1.25952
1.27692
1.16382
1.20163
1.24027
1.2745
1.30384
1.32858
1.34895
1.36484
1.3763
1.39437
1.30874
1.34728
1.38341
1.41409
1.43977
1.46186
1.48091
1.49644
1.50886
1.52686
1.48381
1.51543
1.5416
1.56405
1.58402
1.60274
1.62045
1.63693
1.65228
1.67034
1.67242
1.68962
1.70465
1.72088
1.73678
1.75131
1.76452
1.77844
1.79598
1.81614
1.85413
1.86367
1.87521
1.88602
1.8953
1.90488
1.91566
1.92703
1.93839
1.95375
2.06137
2.06503
2.05008
2.03527
2.02899
2.03467
2.05315
2.08346
2.11563
2.14229
2.36769
2.23282
2.15618
2.1138
2.09637
2.10034
2.12774
2.18415
2.28677
2.51113
0.675831
0.673703
0.66922
0.660596
0.648373
0.636247
0.626021
0.618131
0.612521
0.609278
0.608937
0.611687
0.616801
0.62403
0.633422
0.644964
0.657616
0.668652
0.674765
0.677819
0.600281
0.606128
0.612462
0.616955
0.619427
0.619105
0.616371
0.612566
0.609064
0.606816
0.606683
0.608893
0.612565
0.61686
0.620672
0.622558
0.621623
0.618143
0.61298
0.60636
0.591851
0.594147
0.597551
0.600548
0.602625
0.604123
0.604882
0.604571
0.603554
0.602684
0.602874
0.604314
0.606139
0.607451
0.607635
0.606748
0.605201
0.602866
0.599604
0.596684
0.586332
0.587418
0.589251
0.59163
0.593655
0.595085
0.59611
0.596868
0.597279
0.597515
0.598022
0.598844
0.599451
0.599525
0.599117
0.598272
0.596804
0.594722
0.592637
0.591254
0.581118
0.581781
0.582889
0.584595
0.586378
0.588012
0.589312
0.590334
0.591228
0.592033
0.592781
0.593348
0.593552
0.593393
0.592831
0.59178
0.590354
0.588813
0.587496
0.586717
0.576129
0.576589
0.577375
0.578674
0.580162
0.581682
0.583151
0.584456
0.585604
0.586676
0.587612
0.588198
0.588355
0.58809
0.587398
0.586413
0.58529
0.58416
0.583246
0.582729
0.571283
0.571627
0.572238
0.573307
0.574602
0.575979
0.577422
0.578875
0.580261
0.58156
0.582693
0.583404
0.583596
0.58333
0.582738
0.581966
0.581119
0.580255
0.579585
0.579207
0.566527
0.566795
0.567288
0.568197
0.569368
0.570667
0.572066
0.573562
0.575116
0.576656
0.57803
0.578922
0.57924
0.579131
0.578746
0.578192
0.577549
0.576913
0.576424
0.576135
0.561779
0.561992
0.562402
0.563201
0.564291
0.565541
0.566931
0.568474
0.57016
0.571938
0.573599
0.574753
0.575311
0.575442
0.575287
0.574953
0.574517
0.574073
0.573723
0.573497
0.556951
0.557122
0.557474
0.558199
0.559243
0.560472
0.561889
0.563517
0.565359
0.567392
0.569396
0.570906
0.571785
0.572203
0.5723
0.572195
0.57197
0.571698
0.571464
0.571285
0.551955
0.552093
0.552403
0.553083
0.554111
0.555364
0.556847
0.5586
0.560653
0.562996
0.56542
0.567374
0.568639
0.56939
0.569771
0.569911
0.569895
0.56979
0.569655
0.56951
0.546701
0.546812
0.547094
0.547755
0.5488
0.550122
0.551717
0.553649
0.555979
0.558716
0.561656
0.564143
0.565865
0.566999
0.567705
0.568109
0.568308
0.568373
0.568324
0.568206
0.541093
0.541182
0.541448
0.542114
0.543213
0.544646
0.546405
0.548586
0.55127
0.554506
0.558081
0.561208
0.56347
0.565049
0.566117
0.566832
0.567274
0.567496
0.567522
0.567426
0.535025
0.535093
0.535352
0.536046
0.537236
0.538828
0.540816
0.543324
0.546462
0.550319
0.554669
0.558566
0.561469
0.563571
0.565056
0.566117
0.566825
0.567218
0.567316
0.567237
0.528367
0.528415
0.528675
0.529419
0.530742
0.532548
0.534839
0.537765
0.541477
0.546104
0.551398
0.55622
0.559886
0.562604
0.56458
0.566026
0.567044
0.567621
0.56779
0.567725
0.520965
0.520995
0.521261
0.522078
0.523578
0.525663
0.528341
0.531799
0.53623
0.541803
0.548243
0.554178
0.558749
0.562194
0.564751
0.566659
0.568024
0.5688
0.56904
0.568985
0.512626
0.512642
0.51291
0.513824
0.515558
0.517989
0.521165
0.525298
0.530627
0.537365
0.545194
0.552459
0.558104
0.562402
0.565645
0.568106
0.569867
0.570859
0.571171
0.571124
0.50304
0.503026
0.503355
0.504411
0.506429
0.509314
0.513126
0.518108
0.524558
0.532733
0.542245
0.551089
0.558
0.563305
0.567352
0.570461
0.572677
0.573909
0.574293
0.57425
0.491921
0.491883
0.492256
0.493506
0.495896
0.49937
0.50399
0.51005
0.517906
0.527851
0.539392
0.55011
0.558501
0.564984
0.569975
0.573825
0.576569
0.578058
0.578512
0.578469
0.478788
0.478723
0.479175
0.480678
0.483553
0.487793
0.493461
0.500905
0.510534
0.522661
0.53664
0.549561
0.55967
0.567512
0.573605
0.578309
0.581641
0.583397
0.583915
0.583867
0.462993
0.462898
0.463475
0.465329
0.468856
0.474122
0.481181
0.490432
0.502324
0.517146
0.534033
0.549513
0.561587
0.570974
0.578321
0.58399
0.587964
0.589988
0.590555
0.590497
0.443601
0.443479
0.444258
0.446627
0.45107
0.45776
0.466717
0.478379
0.493183
0.511333
0.531659
0.55006
0.564342
0.575449
0.584174
0.590922
0.595566
0.597833
0.598427
0.59835
0.419196
0.419058
0.42017
0.423338
0.429168
0.437944
0.449594
0.464534
0.483097
0.505316
0.529643
0.551317
0.568013
0.581002
0.591202
0.599114
0.6044
0.606853
0.607438
0.607335
0.387479
0.387362
0.389085
0.393635
0.401763
0.413782
0.42938
0.448818
0.472194
0.499304
0.528188
0.553432
0.57269
0.58766
0.599429
0.608498
0.614321
0.616856
0.617387
0.61725
0.344302
0.344347
0.34741
0.35484
0.367229
0.38454
0.405982
0.431481
0.460848
0.493663
0.527575
0.556583
0.578473
0.59545
0.608767
0.618916
0.62506
0.627513
0.627939
0.627768
0.281914
0.283112
0.290599
0.30445
0.324619
0.350342
0.380009
0.413228
0.449691
0.488871
0.528095
0.560922
0.585405
0.604314
0.619055
0.629998
0.636183
0.638316
0.638575
0.638381
0.207924
0.209677
0.224004
0.247786
0.278861
0.314523
0.353168
0.394615
0.438675
0.484862
0.530241
0.567789
0.595627
0.616985
0.63344
0.645182
0.651248
0.653134
0.653356
0.653256
0.131576
0.137743
0.1589
0.192901
0.234364
0.279667
0.327251
0.376981
0.428738
0.482065
0.53378
0.5762
0.607481
0.631401
0.64976
0.662074
0.667631
0.669056
0.669208
0.669177
0.0691233
0.0775892
0.103308
0.14431
0.193911
0.247447
0.303096
0.360582
0.419678
0.479868
0.537658
0.584682
0.619164
0.645345
0.664994
0.677651
0.683124
0.684379
0.684555
0.684581
0.01833
0.0273915
0.0566525
0.102885
0.158631
0.218802
0.28127
0.345603
0.411404
0.478035
0.541593
0.592987
0.630461
0.65874
0.679784
0.692958
0.698293
0.699781
0.70005
0.700119
-0.0241798
-0.0148368
0.0168701
0.0670952
0.127885
0.193561
0.261819
0.332149
0.403992
0.476564
0.545546
0.6011
0.641443
0.671786
0.694192
0.708017
0.713775
0.71551
0.715802
0.715886
-0.0607673
-0.0513131
-0.017768
0.0356577
0.100619
0.170995
0.244299
0.319937
0.397245
0.475309
0.549405
0.608926
0.652039
0.684368
0.708104
0.722877
0.729108
0.731003
0.731329
0.731409
-0.093102
-0.0836115
-0.0486552
0.00747411
0.0759297
0.150355
0.228121
0.30854
0.390867
0.474059
0.553001
0.616317
0.662079
0.696297
0.721345
0.736897
0.743704
0.745775
0.746121
0.746189
-0.122464
-0.112933
-0.0768189
-0.0183565
0.0530953
0.131068
0.212806
0.297567
0.384524
0.472541
0.556113
0.623077
0.671373
0.70736
0.73362
0.749931
0.757253
0.759462
0.759813
0.759845
-0.149728
-0.14015
-0.103018
-0.0425459
0.0315767
0.11269
0.197978
0.286685
0.37794
0.470529
0.558578
0.629091
0.67982
0.717476
0.744803
0.761718
0.769473
0.771808
0.772166
0.77218
-0.175457
-0.165819
-0.127732
-0.0655632
0.0109657
0.0948769
0.183362
0.275673
0.370923
0.467863
0.560274
0.634297
0.687407
0.726647
0.754911
0.772302
0.780278
0.782722
0.783083
0.783072
-0.200153
-0.190359
-0.15142
-0.0876807
-0.00901201
0.0773962
0.168769
0.26437
0.363341
0.464423
0.561114
0.638671
0.694175
0.734932
0.764057
0.781795
0.789847
0.792288
0.792655
0.792618
-0.224065
-0.214053
-0.174369
-0.109104
-0.0285377
0.0600961
0.154074
0.252677
0.355095
0.460124
0.561042
0.642203
0.700185
0.742478
0.77234
0.790271
0.798314
0.800719
0.801052
0.800991
-0.247302
-0.237084
-0.196621
-0.129985
-0.0477283
0.0429033
0.139212
0.240539
0.346138
0.454905
0.560001
0.644891
0.705501
0.749415
0.779968
0.797978
0.805894
0.8082
0.80848
0.808394
-0.270033
-0.259518
-0.218307
-0.150402
-0.0666356
0.0257742
0.124164
0.227944
0.336459
0.448741
0.557937
0.646711
0.710195
0.755901
0.787127
0.805058
0.812726
0.814862
0.81507
0.814961
-0.292219
-0.281433
-0.239498
-0.170399
-0.0852684
0.0087159
0.108955
0.214922
0.326071
0.441614
0.554803
0.647615
0.714304
0.762065
0.794002
0.81169
0.818905
0.82077
0.820874
0.820738
-0.313923
-0.302835
-0.260129
-0.189963
-0.103613
-0.00824331
0.0936208
0.201524
0.315022
0.433542
0.550557
0.647531
0.717805
0.768019
0.80083
0.818093
0.824549
0.825975
0.825955
0.825803
-0.334979
-0.323659
-0.280197
-0.209057
-0.121627
-0.025037
0.0782237
0.187818
0.30338
0.424577
0.545171
0.646375
0.720621
0.773814
0.807891
0.824667
0.829972
0.830619
0.830383
0.830229
-0.355526
-0.343864
-0.299692
-0.227666
-0.139281
-0.0416291
0.0628521
0.17388
0.29123
0.414794
0.53865
0.644042
0.722603
0.779384
0.815407
0.832007
0.835836
0.835041
0.834242
0.834089
-0.375402
-0.363429
-0.318588
-0.245747
-0.1565
-0.0579376
0.0475848
0.159829
0.278678
0.404252
0.53103
0.640424
0.72355
0.784506
0.823343
0.84076
0.843468
0.840467
0.838023
0.837126
-0.394671
-0.382398
-0.336831
-0.26325
-0.173249
-0.0738946
0.0325038
0.145743
0.265832
0.393087
0.522378
0.635415
0.723223
0.78879
0.831188
0.851022
0.854416
0.849935
0.843458
0.835151
-0.413248
-0.400728
-0.354514
-0.280332
-0.189733
-0.089768
0.0172823
0.131232
0.252259
0.380811
0.512176
0.628475
0.721145
0.791899
0.838295
0.862118
0.869022
0.864689
0.854236
0.849067
-0.431088
-0.418343
-0.371623
-0.296964
-0.205962
-0.105552
0.00193191
0.116276
0.237908
0.367302
0.500221
0.619209
0.716523
0.793038
0.842678
0.869778
0.879019