/*--------------------------------*- C++ -*----------------------------------*\
  =========                 |
  \\      /  F ield         | OpenFOAM: The Open Source CFD Toolbox
   \\    /   O peration     | Website:  https://openfoam.org
    \\  /    A nd           | Version:  9
     \\/     M anipulation  |
\*---------------------------------------------------------------------------*/
FoamFile
{
    format      ascii;
    class       surfaceScalarField;
    location    "14";
    object      phi;
}
// * * * * * * * * * * * * * * * * * * * * * * * * * * * * * * * * * * * * * //

dimensions      [0 3 -1 0 0 0 0];

internalField   nonuniform List<scalar> 
17370
(
-0.091604
0.0960339
0.284581
-0.0776366
0.0594784
0.364934
-0.0431012
0.0316746
0.427595
-0.0223617
0.0162933
0.50532
-0.0116692
0.00876022
0.602311
-0.00652213
0.00503065
0.720549
-0.00379953
0.00293126
0.863775
-0.00217588
0.00161669
1.03601
-0.001109
0.000708274
1.2429
-0.000317145
-4.85327e-05
1.49156
0.000412514
-0.000815064
1.49159
0.00121153
-0.00171309
1.24319
0.00226546
-0.00301258
1.03638
0.00387379
-0.0050989
0.864132
0.00658749
-0.00882314
0.721293
0.0117244
-0.0163356
0.603826
0.0223916
-0.0316916
0.508739
0.0431062
-0.0594762
0.432538
0.0776351
-0.0960322
0.365173
0.0916119
0.197399
-0.127132
0.0881002
0.0390318
-0.364394
0.354097
-0.0713857
0.0816829
-0.446618
0.454339
-0.0790712
0.0713511
-0.520966
0.529187
-0.0633822
0.0551611
-0.612989
0.620751
-0.0477261
0.0399646
-0.727202
0.733633
-0.0334132
0.026982
-0.867591
0.872393
-0.0218431
0.0170413
-1.03855
1.04182
-0.0133804
0.0101036
-1.24468
1.247
-0.00762407
0.0053084
-1.49276
1.4947
-0.00342367
0.00148103
-1.49262
1.49437
0.00025513
-0.00200547
-1.24407
1.24593
0.00392193
-0.00578605
-1.0376
1.04005
0.00807607
-0.0105311
-0.866198
0.869829
0.0137797
-0.0174106
-0.724646
0.729754
0.0221784
-0.0272859
-0.609104
0.615628
0.0336842
-0.0402084
-0.515114
0.52252
0.0479396
-0.0553454
-0.439836
0.447764
0.0635256
-0.0714529
-0.374758
0.37738
0.0791144
-0.0817369
-0.256984
0.224603
0.071428
-0.039047
-0.06893
0.0593844
0.00954556
-0.0517153
0.0584432
-0.374909
0.368181
-0.0575926
0.0537829
-0.454057
0.457866
-0.0483484
0.0438019
-0.527741
0.532287
-0.0392317
0.0352612
-0.620796
0.624767
-0.0309529
0.0269211
-0.734522
0.738553
-0.0226039
0.0188086
-0.873802
0.877597
-0.0149003
0.011571
-1.04319
1.04652
-0.00820055
0.00531352
-1.24845
1.25134
-0.00229698
-0.000495756
-1.49673
1.49953
0.00326987
-0.00625795
-1.49721
1.50019
0.00909766
-0.0124072
-1.2499
1.25321
0.0156759
-0.0195159
-1.04553
1.04937
0.0232535
-0.0275132
-0.877034
0.881293
0.0314931
-0.0357419
-0.738968
0.743217
0.0396579
-0.0441783
-0.626135
0.630655
0.0486889
-0.0540899
-0.535234
0.540635
0.0578627
-0.0586708
-0.458259
0.459067
0.0518811
-0.0317437
-0.337032
0.316894
0.00957472
-0.0688533
0.0592786
-0.0536938
0.0496911
0.00400272
-0.0325208
0.0426737
-0.358914
0.348761
-0.0461641
0.0455125
-0.459595
0.460246
-0.0426069
0.0394771
-0.536097
0.539227
-0.0358759
0.032567
-0.6284
0.631709
-0.0289713
0.0257686
-0.742002
0.745205
-0.0223418
0.0192308
-0.881128
0.884239
-0.0158078
0.0126637
-1.04987
1.05302
-0.00923444
0.00610488
-1.25442
1.25755
-0.00262121
-0.000720348
-1.50261
1.50595
0.00404346
-0.00747935
-1.50346
1.50689
0.0105519
-0.0139029
-1.25665
1.26001
0.0169645
-0.0202897
-1.0531
1.05642
0.0233152
-0.0266476
-0.885026
0.888358
0.0297687
-0.0332934
-0.74697
0.750495
0.0365344
-0.0400605
-0.634727
0.638253
0.0431309
-0.0459752
-0.544657
0.547501
0.0465642
-0.0429898
-0.457293
0.453718
0.0327374
-0.0158981
-0.297947
0.281108
0.00403598
-0.0535573
0.0495213
-0.0466499
0.0442803
0.00236954
-0.0216174
0.0313672
-0.338578
0.328828
-0.0366881
0.0374227
-0.4602
0.459466
-0.0359991
0.0335936
-0.541914
0.54432
-0.0309413
0.0285115
-0.634531
0.636961
-0.025805
0.0232872
-0.748099
0.750617
-0.0204402
0.0177954
-0.887075
0.88972
-0.0148287
0.0120507
-1.05591
1.05869
-0.00889092
0.00587413
-1.26063
1.26365
-0.00238477
-0.00101693
-1.50942
1.51282
0.00439502
-0.00781886
-1.51038
1.51381
0.0107506
-0.0138017
-1.26318
1.26623
0.016472
-0.0193126
-1.05942
1.06226
0.0218358
-0.0245434
-0.891391
0.894098
0.026941
-0.0295322
-0.753556
0.756147
0.0318713
-0.0344335
-0.641198
0.64376
0.0367606
-0.038082
-0.549586
0.550908
0.0372459
-0.0317873
-0.449021
0.443563
0.021894
-0.00955338
-0.266582
0.254241
0.00241088
-0.0464452
0.0440343
-0.0423986
0.0408672
0.00153138
-0.0147005
0.0229337
-0.319753
0.31152
-0.0288063
0.0307161
-0.458059
0.45615
-0.0304041
0.0289761
-0.54627
0.547698
-0.0270953
0.0252622
-0.639141
0.640974
-0.0231643
0.0211366
-0.752862
0.75489
-0.0187575
0.016405
-0.892216
0.894569
-0.0136556
0.0110165
-1.0614
1.06404
-0.0080008
0.00513159
-1.26659
1.26946
-0.00184996
-0.00130647
-1.51607
1.51923
0.00444005
-0.0076416
-1.51711
1.52031
0.0103972
-0.0132563
-1.26918
1.27204
0.0157401
-0.0183161
-1.06497
1.06755
0.02051
-0.0227264
-0.896552
0.898768
0.0246104
-0.0265734
-0.758441
0.760404
0.0282604
-0.0300089
-0.645972
0.647721
0.0313252
-0.0315114
-0.551566
0.551753
0.0294672
-0.023419
-0.437656
0.431608
0.0150147
-0.006256
-0.243809
0.23505
0.00157827
-0.0421081
0.0405298
-0.0396267
0.0386863
0.000940431
-0.00907915
0.0151771
-0.304283
0.298185
-0.0205942
0.0231135
-0.45389
0.45137
-0.0235887
0.0229812
-0.548707
0.549315
-0.021747
0.0204613
-0.642468
0.643753
-0.0188881
0.0172833
-0.756702
0.758306
-0.015403
0.0135811
-0.896679
0.898501
-0.0114401
0.00931212
-1.06647
1.0686
-0.00676824
0.0042391
-1.27221
1.27474
-0.00123893
-0.00172854
-1.52234
1.5253
0.00465545
-0.0075375
-1.5234
1.52629
0.00991012
-0.0122566
-1.2747
1.27705
0.0141879
-0.0161064
-1.06983
1.07175
0.0177312
-0.0193924
-0.900718
0.902379
0.0207929
-0.0221557
-0.762029
0.763392
0.0232752
-0.0243504
-0.649089
0.650164
0.0247927
-0.0241303
-0.551531
0.550869
0.0214167
-0.0157655
-0.42565
0.419999
0.00945884
-0.00383294
-0.227872
0.222246
0.00100036
-0.0392352
0.0382348
-0.0380523
0.0376839
0.000368403
-0.00436787
0.00814703
-0.293286
0.289507
-0.0123226
0.0148267
-0.448751
0.446247
-0.0158215
0.0158515
-0.549532
0.549502
-0.0151878
0.0144342
-0.644821
0.645575
-0.0135221
0.0126024
-0.759624
0.760544
-0.0113965
0.0101051
-0.900062
0.901353
-0.00848323
0.00682762
-1.07046
1.07212
-0.00481894
0.00279212
-1.27699
1.27902
-0.000308358
-0.00219897
-1.52803
1.53054
0.00464902
-0.00697476
-1.52888
1.5312
0.00881044
-0.0105663
-1.27906
1.28082
0.0119609
-0.013273
-1.07335
1.07466
0.014261
-0.0151425
-0.9037
0.904581
0.0158036
-0.0164666
-0.764436
0.7651
0.0170261
-0.0174612
-0.650923
0.651358
0.017231
-0.0160104
-0.549836
0.548616
0.0132741
-0.00882763
-0.414879
0.410432
0.00481129
-0.00179043
-0.218051
0.21503
0.000438353
-0.0375371
0.0370987
-0.037512
0.0374582
5.38217e-05
-0.0018322
0.0040832
-0.286637
0.284386
-0.00710024
0.00926617
-0.443959
0.441793
-0.0104292
0.0107719
-0.549344
0.549002
-0.0107578
0.010525
-0.646017
0.646249
-0.0100338
0.00946783
-0.761189
0.761755
-0.00871826
0.00786635
-0.902367
0.903218
-0.00669073
0.00537193
-1.07357
1.07489
-0.0036456
0.00181296
-1.28091
1.28274
0.000447282
-0.00271067
-1.53289
1.53516
0.00491559
-0.00700318
-1.53337
1.53546
0.00860751
-0.0100329
-1.28238
1.2838
0.0110557
-0.0119043
-1.0757
1.07654
0.0124982
-0.0129939
-0.905129
0.905625
0.0132958
-0.0133686
-0.765404
0.765477
0.0132259
-0.0129564
-0.651433
0.651164
0.0123123
-0.0108127
-0.547301
0.545802
0.00832708
-0.00495894
-0.406623
0.403255
0.00240538
-0.000767166
-0.212859
0.211221
0.000145765
-0.0368463
0.0367005
-0.0374527
0.0374613
-8.62274e-06
-0.00103872
0.00269071
-0.282501
0.280849
-0.0053369
0.00770901
-0.439575
0.437203
-0.00952828
0.0104392
-0.548375
0.547464
-0.0106592
0.0106958
-0.646345
0.646308
-0.0105825
0.0101578
-0.762281
0.762706
-0.00938032
0.00840722
-0.904091
0.905064
-0.0070404
0.00551373
-1.07624
1.07777
-0.00352721
0.00146098
-1.28463
1.2867
0.00103077
-0.00346274
-1.53744
1.53987
0.00582443
-0.00809034
-1.53757
1.53984
0.00984157
-0.011416
-1.28524
1.28681
0.0125383
-0.0134391
-1.07736
1.07826
0.0139527
-0.0141706
-0.906029
0.906247
0.0141129
-0.0138966
-0.765413
0.765197
0.0136154
-0.0129936
-0.650695
0.650074
0.0117547
-0.00955384
-0.544002
0.541802
0.00681106
-0.00374873
-0.400108
0.397046
0.00173057
-0.000539623
-0.209873
0.208682
9.91521e-05
-0.0365964
0.0364973
-0.0374755
0.0374953
-1.97385e-05
-0.000621014
0.00188764
-0.279383
0.278117
-0.00430188
0.00699945
-0.434636
0.431938
-0.00975288
0.0116118
-0.546116
0.544257
-0.0127996
0.0131588
-0.646095
0.645736
-0.0130264
0.0124916
-0.763194
0.763728
-0.0115176
0.0102358
-0.906182
0.907463
-0.00843793
0.00647329
-1.07952
1.08148
-0.0039953
0.00147061
-1.289
1.29152
0.00154849
-0.00449473
-1.54255
1.5455
0.00734282
-0.0100672
-1.54233
1.54506
0.0121905
-0.0141275
-1.28858
1.29052
0.0155586
-0.0167634
-1.07932
1.08053
0.0175119
-0.017964
-0.906611
0.907063
0.01793
-0.0174719
-0.764813
0.764355
0.0166538
-0.0149494
-0.648961
0.647257
0.0126095
-0.00932776
-0.539048
0.535767
0.00614493
-0.00320695
-0.394017
0.391079
0.00148674
-0.0005089
-0.207599
0.206621
0.000117674
-0.0363885
0.0362708
-0.0375258
0.0375724
-4.65521e-05
-0.000127714
0.00089277
-0.277092
0.276327
-0.00269451
0.00512304
-0.429279
0.42685
-0.00812734
0.0105568
-0.542011
0.539582
-0.012536
0.0133434
-0.645238
0.644431
-0.0133836
0.0129925
-0.764162
0.764554
-0.0118895
0.0104295
-0.90887
0.91033
-0.00840407
0.00622226
-1.08361
1.08579
-0.00351097
0.000769803
-1.2942
1.29695
0.00252778
-0.0057577
-1.54864
1.55187
0.00884846
-0.0117587
-1.54794
1.55085
0.0140187
-0.0160902
-1.29257
1.29464
0.0175844
-0.0187876
-1.08179
1.08299
0.0194454
-0.0196406
-0.907446
0.907642
0.0195036
-0.0188519
-0.763843
0.763192
0.0173069
-0.0146455
-0.645002
0.642341
0.0116181
-0.00796833
-0.53216
0.52851
0.00495903
-0.00252912
-0.388345
0.385915
0.00120825
-0.00045453
-0.205756
0.205002
0.000121761
-0.0361495
0.0360278
-0.0376434
0.0377411
-9.76858e-05
0.000348652
-0.000130255
-0.275827
0.275609
-0.000809114
0.0023699
-0.424815
0.423254
-0.00459713
0.00662191
-0.537233
0.535208
-0.00842973
0.00952119
-0.643289
0.642198
-0.00994617
0.0096509
-0.764991
0.765286
-0.00880287
0.00758072
-0.911737
0.912959
-0.00580068
0.00382714
-1.08791
1.08989
-0.00132706
-0.00123329
-1.29964
1.3022
0.0043093
-0.00729621
-1.55505
1.55804
0.0101141
-0.0127099
-1.55366
1.55626
0.0146602
-0.016321
-1.29658
1.29824
0.0174253
-0.018235
-1.08406
1.08487
0.0186016
-0.0185326
-0.907731
0.907662
0.0178594
-0.0163629
-0.762081
0.760585
0.0144336
-0.0117399
-0.639527
0.636834
0.00895047
-0.00592584
-0.52508
0.522055
0.00365303
-0.00193108
-0.38384
0.382118
0.000992873
-0.000410963
-0.204346
0.203764
0.000119583
-0.0359074
0.0357878
-0.0378631
0.038008
-0.000144933
0.000792265
-0.000941272
-0.275597
0.275746
0.000761567
-0.000101289
-0.422167
0.421507
-0.00106169
0.00222868
-0.533607
0.53244
-0.00333394
0.00403149
-0.641287
0.640589
-0.00435896
0.00424616
-0.765441
0.765553
-0.00368605
0.00279459
-0.913996
0.914887
-0.00142654
-0.000149819
-1.09166
1.09323
0.00219385
-0.00429654
-1.30454
1.30665
0.00679214
-0.00915622
-1.56074
1.5631
0.0113139
-0.0131678
-1.55851
1.56037
0.0144191
-0.0153998
-1.29958
1.30056
0.0159058
-0.0160181
-1.0853
1.08541
0.0157334
-0.0150352
-0.907233
0.906535
0.0140045
-0.0124838
-0.759065
0.757544
0.0107603
-0.00859806
-0.634398
0.632236
0.00652222
-0.00440585
-0.519504
0.517388
0.00286485
-0.00167315
-0.3807
0.379508
0.000952696
-0.000428357
-0.203227
0.202703
0.000130021
-0.0356664
0.0355364
-0.0381741
0.0383624
-0.000188293
0.0011165
-0.00158819
-0.276042
0.276514
0.00188868
-0.00190152
-0.421214
0.421227
0.00160126
-0.00120214
-0.531701
0.531302
0.000806341
-0.000601343
-0.640152
0.639947
0.000611213
-0.000860855
-0.76572
0.76597
0.00141926
-0.00219219
-0.915689
0.916462
0.00332384
-0.00459904
-1.09463
1.0959
0.00622915
-0.00787383
-1.3085
1.31014
0.00975907
-0.0114612
-1.56512
1.56682
0.0129025
-0.014022
-1.56185
1.56297
0.0146148
-0.0148114
-1.30113
1.30133
0.0146902
-0.0142451
-1.08523
1.08478
0.0135647
-0.0125476
-0.905649
0.904632
0.0114061
-0.00996495
-0.756058
0.754617
0.00851156
-0.00683796
-0.630345
0.628672
0.00533321
-0.00383959
-0.515636
0.514142
0.00271942
-0.00176254
-0.378469
0.377512
0.00108503
-0.00051358
-0.202167
0.201596
0.00016007
-0.0353955
0.0352354
-0.0385749
0.0388125
-0.000237606
0.0014526
-0.00214193
-0.277078
0.277767
0.00281673
-0.00326094
-0.421434
0.421878
0.00355663
-0.003741
-0.531261
0.531446
0.00393029
-0.00417492
-0.640033
0.640277
0.00458225
-0.0051076
-0.766369
0.766895
0.00586444
-0.00672344
-0.91724
0.918099
0.00784306
-0.00901009
-1.09707
1.09823
0.010412
-0.0117451
-1.31159
1.31292
0.0131672
-0.0143268
-1.56822
1.56938
0.0151569
-0.0155791
-1.56374
1.56416
0.0155673
-0.0152604
-1.30125
1.30095
0.0147264
-0.0138654
-1.08406
1.0832
0.0128947
-0.0116887
-0.903495
0.902289
0.0104942
-0.00911976
-0.753216
0.751842
0.00783626
-0.00644084
-0.627183
0.625788
0.00522434
-0.00400403
-0.512841
0.511621
0.00302356
-0.00208364
-0.37659
0.37565
0.00133355
-0.000646724
-0.200979
0.200292
0.000204768
-0.0350603
0.0348555
-0.0390833
0.039383
-0.000299773
0.00185323
-0.00276749
-0.278563
0.279477
0.00372403
-0.00449416
-0.42247
0.42324
0.00519793
-0.00577798
-0.531897
0.532477
0.00642103
-0.0070831
-0.640837
0.641499
0.00791741
-0.0087972
-0.767607
0.768487
0.00988886
-0.0109834
-0.919013
0.920108
0.0122628
-0.0134842
-1.09936
1.10058
0.0148438
-0.0160351
-1.31412
1.31531
0.0171788
-0.0179577
-1.57031
1.57108
0.0183258
-0.0182357
-1.5643
1.56421
0.0177798
-0.0169875
-1.30038
1.29959
0.0160506
-0.0148614
-1.08215
1.08096
0.0136711
-0.012303
-0.900979
0.899611
0.0110269
-0.00962831
-0.750461
0.749063
0.00837039
-0.00703395
-0.624477
0.623141
0.00587036
-0.0046684
-0.510476
0.509274
0.00364042
-0.00257767
-0.374678
0.373615
0.00167748
-0.000822848
-0.19954
0.198685
0.000263384
-0.0346371
0.0343737
-0.0397284
0.0401093
-0.000380858
0.00236116
-0.00353864
-0.280533
0.28171
0.00479576
-0.00584166
-0.424188
0.425233
0.00686156
-0.00775822
-0.533359
0.534255
0.00879632
-0.00985911
-0.642454
0.643517
0.0111579
-0.0124555
-0.769516
0.770814
0.0139697
-0.0154028
-0.921246
0.922679
0.0169824
-0.018392
-1.10181
1.10322
0.0198577
-0.0210461
-1.31642
1.31761
0.0220579
-0.0225824
-1.57168
1.5722
0.0225929
-0.0220711
-1.56387
1.56335
0.0212237
-0.0200019
-1.29855
1.29733
0.0187099
-0.01718
-1.07956
1.07803
0.0157343
-0.0141416
-0.89808
0.896487
0.012706
-0.0111708
-0.747577
0.746042
0.00980976
-0.00836726
-0.621814
0.620372
0.00709495
-0.00574141
-0.508099
0.506745
0.0045368
-0.00324254
-0.372494
0.3712
0.00212267
-0.00104632
-0.197758
0.196681
0.000337358
-0.0341051
0.0337677
-0.0405547
0.0410418
-0.000487139
0.00301701
-0.00452451
-0.283085
0.284592
0.00614827
-0.0075185
-0.426559
0.427929
0.00888854
-0.0101207
-0.535568
0.5368
0.0115587
-0.0130347
-0.644854
0.64633
0.0148271
-0.0165726
-0.772194
0.773939
0.0185591
-0.0203993
-0.924124
0.925964
0.0223939
-0.0241275
-1.10464
1.10637
0.0258403
-0.0271311
-1.31873
1.32002
0.0281069
-0.0284474
-1.57257
1.57291
0.0281475
-0.0272126
-1.56259
1.56166
0.0259602
-0.0242939
-1.29586
1.2942
0.022614
-0.0206899
-1.07625
1.07432
0.0189203
-0.0170162
-0.894644
0.89274
0.0153331
-0.0135595
-0.744315
0.742541
0.0119973
-0.0103371
-0.618875
0.617215
0.0088516
-0.00723244
-0.50542
0.5038
0.00574393
-0.004097
-0.369872
0.368225
0.00266982
-0.00131334
-0.195537
0.19418
0.000423005
-0.0334394
0.0330163
-0.0416248
0.0422629
-0.000638136
0.00391023
-0.00586098
-0.28638
0.288331
0.00797017
-0.00975701
-0.429667
0.431454
0.011548
-0.0131684
-0.538565
0.540185
0.0150703
-0.0170099
-0.648124
0.650063
0.0193605
-0.0216494
-0.775728
0.778017
0.0242374
-0.0265976
-0.927781
0.930142
0.0290918
-0.0311984
-1.10807
1.11017
0.0332108
-0.0346567
-1.32126
1.3227
0.035645
-0.0358247
-1.5731
1.57328
0.0352121
-0.0338342
-1.56047
1.5591
0.0321291
-0.029947
-1.29225
1.29007
0.027799
-0.0253806
-1.07209
1.06967
0.0231874
-0.0208579
-0.890483
0.888153
0.0188235
-0.0167025
-0.740444
0.738323
0.0148445
-0.0128665
-0.615414
0.613436
0.011073
-0.00907489
-0.502224
0.500225
0.00721368
-0.00516124
-0.366629
0.364576
0.00336693
-0.00164297
-0.192769
0.191045
0.000526359
-0.0326087
0.0320824
-0.0430196
0.0438834
-0.0008638
0.00519549
-0.00776619
-0.290633
0.293204
0.0105248
-0.0128388
-0.433707
0.436021
0.0151393
-0.0172279
-0.542498
0.544587
0.0197038
-0.0222386
-0.652391
0.654926
0.025286
-0.0282209
-0.780307
0.783241
0.0314906
-0.0344172
-0.932431
0.935358
0.0374678
-0.0400054
-1.11225
1.11479
0.0423801
-0.0440224
-1.32409
1.32574
0.0450387
-0.0450392
-1.57329
1.57329
0.044066
-0.0421686
-1.55743
1.55553
0.0399264
-0.0371238
-1.28757
1.28476
0.0344013
-0.0313635
-1.06689
1.06385
0.0286264
-0.0257362
-0.885375
0.882485
0.0232283
-0.0206341
-0.735741
0.733146
0.0183753
-0.0159764
-0.611215
0.608816
0.0137865
-0.01132
-0.498305
0.495839
0.00901492
-0.00644878
-0.362585
0.360019
0.00420674
-0.00205423
-0.189309
0.187156
0.000656265
-0.0315819
0.0309257
-0.0448663
0.0460662
-0.00119994
0.0070825
-0.0105323
-0.296159
0.299609
0.0141699
-0.0171709
-0.438944
0.441945
0.0201262
-0.0228313
-0.547612
0.550317
0.0260546
-0.0293354
-0.657915
0.661196
0.0332248
-0.0369054
-0.786175
0.789855
0.040947
-0.0445299
-0.938265
0.941848
0.0482227
-0.0512475
-1.11731
1.12034
0.0540049
-0.0558215
-1.32728
1.32909
0.0568005
-0.0565322
-1.57304
1.57278
0.0550886
-0.0525455
-1.55327
1.55073
0.049648
-0.0460925
-1.28157
1.27801
0.0426731
-0.0388789
-1.06038
1.05658
0.0354705
-0.0318781
-0.879063
0.87547
0.0287686
-0.0255673
-0.729959
0.726758
0.0227964
-0.0198709
-0.606045
0.603119
0.0171993
-0.0141716
-0.493433
0.490406
0.0112815
-0.0080697
-0.357551
0.354339
0.00525696
-0.00256239
-0.184994
0.1823
0.000816531
-0.0303143
0.0294977
-0.0473703
0.0490698
-0.0016996
0.00985344
-0.0145176
-0.303425
0.308089
0.0192874
-0.0231506
-0.445777
0.44964
0.0269361
-0.030449
-0.554268
0.557781
0.0346596
-0.0389124
-0.665011
0.669264
0.0438746
-0.0484895
-0.793612
0.798227
0.0534808
-0.0578367
-0.945471
0.949827
0.062241
-0.0657529
-1.12334
1.12685
0.0688279
-0.0707153
-1.33076
1.33264
0.0715053
-0.0707986
-1.57217
1.57146
0.068707
-0.065337
-1.54771
1.54434
0.0616295
-0.0571613
-1.27397
1.26951
0.0529064
-0.0482096
-1.05227
1.04758
0.0440001
-0.0395649
-0.871256
0.866821
0.0357275
-0.0317825
-0.722828
0.718883
0.0283782
-0.0247988
-0.599657
0.596077
0.0215284
-0.0178073
-0.487363
0.483642
0.0142206
-0.01014
-0.35128
0.347199
0.006588
-0.0031991
-0.179636
0.176247
0.00101273
-0.0287538
0.0277411
-0.0508594
0.0533776
-0.00251819
0.0141507
-0.0205108
-0.313163
0.319523
0.0267436
-0.031717
-0.454784
0.459758
0.0366039
-0.0412133
-0.562968
0.567577
0.0467511
-0.0522481
-0.674122
0.679619
0.0585182
-0.0642221
-0.80293
0.808634
0.0702601
-0.0754053
-0.95419
0.959336
0.0804623
-0.0843489
-1.13026
1.13415
0.0875723
-0.0893411
-1.33428
1.33605
0.0896999
-0.0883101
-1.57029
1.5689
0.0853329
-0.0809067
-1.54038
1.53595
0.076206
-0.0706455
-1.26445
1.25889
0.0654046
-0.0596504
-1.04226
1.03651
0.0545057
-0.0490863
-0.861652
0.856233
0.0443954
-0.039571
-0.714049
0.709224
0.0354127
-0.0310482
-0.591761
0.587396
0.0270479
-0.0224583
-0.479796
0.475207
0.0179868
-0.0128527
-0.343364
0.33823
0.00830559
-0.00398681
-0.172977
0.168658
0.00124531
-0.0268369
0.0255916
-0.0559125
0.0599172
-0.00400474
0.0214297
-0.0303493
-0.326486
0.335405
0.0386109
-0.0450031
-0.466819
0.473212
0.0513595
-0.0574248
-0.5744
0.580466
0.0646551
-0.0716287
-0.685751
0.692724
0.0793176
-0.0860885
-0.814392
0.821163
0.0930375
-0.0987653
-0.964399
0.970127
0.104172
-0.108114
-1.13778
1.14172
0.111104
-0.112391
-1.33736
1.33865
0.111923
-0.109504
-1.56685
1.56443
0.10534
-0.0995997
-1.53079
1.52505
0.0937167
-0.0868917
-1.25265
1.24582
0.0805304
-0.0735856
-1.03006
1.02312
0.0673913
-0.0608642
-0.849971
0.843444
0.0552042
-0.049372
-0.70333
0.697497
0.0443464
-0.0390775
-0.58203
0.576761
0.0342201
-0.0285703
-0.470334
0.464684
0.0229623
-0.0164287
-0.333388
0.326854
0.0105915
-0.00504463
-0.164598
0.159051
0.00155237
-0.0244835
0.0229311
-0.0636969
0.0709467
-0.00724976
0.0351219
-0.0481118
-0.345659
0.358649
0.0591929
-0.0672006
-0.483107
0.491114
0.0751873
-0.0829944
-0.589258
0.597065
0.0920559
-0.100357
-0.700172
0.708473
0.109116
-0.116532
-0.827788
0.835204
0.123851
-0.129614
-0.975512
0.981275
0.134744
-0.138141
-1.14512
1.14851
0.140257
-0.140482
-1.33918
1.33941
0.138624
-0.13471
-1.56109
1.55717
0.128994
-0.121669
-1.51841
1.51108
0.114419
-0.106196
-1.23822
1.23
0.0986237
-0.0904221
-1.01543
1.00723
0.0831297
-0.0754504
-0.836014
0.828335
0.0687775
-0.0618803
-0.690447
0.683549
0.0559214
-0.0496669
-0.570157
0.563902
0.0438739
-0.0369878
-0.458421
0.451535
0.0299228
-0.0215275
-0.320593
0.312197
0.0138516
-0.00647636
-0.153968
0.146593
0.00190212
-0.0215937
0.0196915
-0.0778986
0.0812855
-0.0033869
0.024327
-0.035321
-0.374533
0.385527
0.0452417
-0.0531216
-0.504384
0.512264
0.0620979
-0.0716995
-0.60729
0.616892
0.0823446
-0.091897
-0.716515
0.726068
0.102553
-0.111983
-0.841885
0.851314
0.121775
-0.130167
-0.986126
0.994518
0.138496
-0.145143
-1.15088
1.15752
0.151021
-0.154816
-1.3385
1.3423
0.156754
-0.15598
-1.55204
1.55127
0.152363
-0.146303
-1.50267
1.49661
0.139211
-0.130224
-1.22092
1.21194
0.121443
-0.110925
-0.998263
0.987746
0.101294
-0.0907305
-0.819757
0.809193
0.0813135
-0.0713485
-0.675386
0.665421
0.0623199
-0.0529716
-0.555984
0.546636
0.0446401
-0.0346434
-0.44365
0.433654
0.0251751
-0.0155756
-0.30378
0.29418
0.00833098
-0.00299309
-0.139963
0.134625
0.000519899
-0.0180917
0.0175718
-0.0884662
0.0853148
0.00315143
0.00138063
-0.00777338
-0.399316
0.405709
0.0157071
-0.0223696
-0.52494
0.531603
0.030908
-0.0392949
-0.62693
0.635317
0.0489106
-0.0577002
-0.73558
0.744369
0.0670748
-0.0755839
-0.860262
0.868771
0.0844367
-0.0917531
-1.00262
1.00994
0.0992422
-0.104923
-1.16404
1.16972
0.109933
-0.11291
-1.3459
1.34888
0.113826
-0.112326
-1.5498
1.5483
0.10813
-0.101656
-1.48984
1.48337
0.0941657
-0.0849637
-1.20253
1.19333
0.0761232
-0.0660324
-0.976986
0.966895
0.0566043
-0.0461717
-0.797781
0.787349
0.0368758
-0.0273714
-0.653416
0.643911
0.0192738
-0.0109613
-0.534554
0.526241
0.00391876
0.00260712
-0.421778
0.415252
-0.00656372
0.00809396
-0.283262
0.281732
-0.0072493
0.00458928
-0.128048
0.130708
-0.00187713
-0.0161925
0.0180696
-0.0877734
0.084303
0.00347031
-0.00655826
0.00369984
-0.415281
0.418139
0.0012904
-0.00674357
-0.541886
0.547339
0.0138155
-0.0210144
-0.644117
0.651316
0.0292189
-0.0367624
-0.752686
0.760229
0.04503
-0.0523884
-0.876649
0.884008
0.059841
-0.0663756
-1.01712
1.02365
0.0729067
-0.0779902
-1.17504
1.18012
0.0821176
-0.0844247
-1.35133
1.35364
0.0851063
-0.0834238
-1.54634
1.54465
0.079301
-0.0731998
-1.47661
1.47051
0.0663548
-0.0582653
-1.18438
1.17629
0.0502604
-0.0414725
-0.956883
0.948095
0.0333666
-0.0245223
-0.777391
0.768547
0.0169268
-0.0091574
-0.633712
0.625942
0.00276436
0.00367843
-0.515968
0.509525
-0.00853538
0.012439
-0.40664
0.402737
-0.0139561
0.0124414
-0.276191
0.277706
-0.00918596
0.0051116
-0.130443
0.134517
-0.00185657
-0.0184141
0.0202707
-0.0853425
0.0820324
0.00331008
-0.0091289
0.0082954
-0.425207
0.426041
-0.00512699
0.000906019
-0.55525
0.559471
0.00517458
-0.0111773
-0.658394
0.664397
0.0181685
-0.0246185
-0.767523
0.773973
0.0316535
-0.0379503
-0.890963
0.89726
0.0447229
-0.0503082
-1.02984
1.03542
0.0561172
-0.0602597
-1.18491
1.18906
0.0639657
-0.066059
-1.35588
1.35797
0.0665877
-0.0648652
-1.54281
1.54109
0.0613605
-0.0561946
-1.4643
1.45914
0.0503755
-0.0432576
-1.1685
1.16139
0.0366171
-0.0294458
-0.939632
0.932461
0.0227795
-0.0158866
-0.760319
0.753426
0.00969373
-0.00364676
-0.617788
0.611741
-0.00121496
0.0055965
-0.501823
0.497442
-0.0085579
0.0107111
-0.396438
0.394285
-0.0111518
0.00906621
-0.274088
0.276174
-0.00645016
0.00345112
-0.134793
0.137792
-0.00124894
-0.020539
0.0217879
-0.08296
0.0802226
0.00273739
-0.00928268
0.00969216
-0.431555
0.431145
-0.0072237
0.0038968
-0.566198
0.569525
0.000996559
-0.00635807
-0.670438
0.6758
0.012222
-0.0178854
-0.780037
0.785701
0.0239743
-0.0294654
-0.903233
0.908724
0.0353347
-0.040386
-1.04097
1.04603
0.0454153
-0.0493696
-1.19319
1.19714
0.0527396
-0.0546912
-1.35988
1.36183
0.0552824
-0.0538665
-1.53944
1.53803
0.0509104
-0.0463465
-1.45368
1.44912
0.0414003
-0.0355243
-1.15468
1.1488
0.0299921
-0.0239445
-0.925502
0.919455
0.0185731
-0.0129653
-0.746772
0.741164
0.00815948
-0.00340833
-0.605614
0.600863
-0.000281006
0.00351252
-0.491644
0.488413
-0.00575096
0.00713981
-0.38968
0.388291
-0.00716379
0.00578143
-0.273115
0.274497
-0.00410156
0.00214192
-0.137126
0.139086
-0.000848059
-0.0215848
0.0224329
-0.0810433
0.0787682
0.00227515
-0.0085148
0.009114
-0.435623
0.435023
-0.00768406
0.00485814
-0.574783
0.577609
-0.000289553
-0.00428575
-0.680723
0.685298
0.00935408
-0.0142955
-0.790849
0.79579
0.0197317
-0.024677
-0.913975
0.91892
0.0301127
-0.0346303
-1.05089
1.05541
0.0392917
-0.0430006
-1.20095
1.20466
0.0461594
-0.0480405
-1.36369
1.36557
0.0487016
-0.0478901
-1.53671
1.5359
0.0453529
-0.0415818
-1.44439
1.44062
0.0373145
-0.0322505
-1.14306
1.138
0.0277183
-0.0224526
-0.913638
0.908372
0.0178567
-0.0132244
-0.735789
0.731157
0.00919917
-0.00521052
-0.596123
0.592135
0.00206662
0.000843187
-0.483904
0.480994
-0.00254536
0.00369354
-0.384463
0.383315
-0.00414487
0.00349713
-0.271465
0.272113
-0.00250431
0.00138357
-0.137548
0.138669
-0.000587353
-0.0219155
0.0225029
-0.0796618
0.0779069
0.00175487
-0.00718562
0.00796289
-0.438528
0.437751
-0.0066992
0.0044543
-0.582369
0.584614
-0.00034638
-0.00378807
-0.689679
0.693814
0.00861944
-0.0129143
-0.800556
0.804851
0.0177392
-0.0221789
-0.923928
0.928368
0.0274011
-0.0315892
-1.06003
1.06422
0.0358529
-0.0395006
-1.2083
1.21194
0.0429734
-0.0448917
-1.36762
1.36954
0.0458496
-0.0452583
-1.53489
1.5343
0.0434017
-0.0398968
-1.43679
1.43329
0.0362733
-0.031899
-1.13294
1.12856
0.0277419
-0.0231966
-0.9033
0.898755
0.0190385
-0.0147102
-0.726399
0.722071
0.0113093
-0.00762331
-0.587943
0.584257
0.00463668
-0.00207779
-0.477123
0.474564
0.00026235
0.00112393
-0.379876
0.37849
-0.00176552
0.00176898
-0.269192
0.269188
-0.00138781
0.000857114
-0.136657
0.137187
-0.000425448
-0.0217974
0.0222228
-0.0788807
0.0774985
0.00138215
-0.00583554
0.00670228
-0.440786
0.439919
-0.00549877
0.00324959
-0.588938
0.591187
0.000499325
-0.00421725
-0.697763
0.701481
0.00839794
-0.012561
-0.809263
0.813426
0.0170538
-0.0216505
-0.932704
0.937301
0.0262139
-0.0302757
-1.06856
1.07262
0.0347379
-0.0382433
-1.21555
1.21906
0.0413889
-0.0438454
-1.37149
1.37395
0.0451377
-0.0449706
-1.5339
1.53374
0.043401
-0.0405383
-1.43004
1.42718
0.0372754
-0.0332315
-1.12393
1.11988
0.0294181
-0.0251348
-0.894114
0.88983
0.0212331
-0.0172918
-0.717779
0.713838
0.0137744
-0.0103079
-0.580329
0.576862
0.00750356
-0.00476148
-0.471053
0.468311
0.0027501
-0.00134828
-0.375081
0.37368
0.000336226
0.000295575
-0.266122
0.26549
-0.000505447
0.000460058
-0.134912
0.134957
-0.000308692
-0.0214137
0.0217224
-0.0786719
0.0775102
0.00116176
-0.00438146
0.00501131
-0.442859
0.44223
-0.00399509
0.0017103
-0.594914
0.597199
0.00170286
-0.00526415
-0.705299
0.70886
0.00927714
-0.0130706
-0.817527
0.821321
0.0176923
-0.0215524
-0.941419
0.945279
0.0261064
-0.0300247
-1.07688
1.0808
0.0344221
-0.0381673
-1.2226
1.22634
0.0416615
-0.0440039
-1.37625
1.37859
0.045749
-0.0460703
-1.53362
1.53394
0.0451623
-0.0425777
-1.42425
1.42166
0.0396497
-0.0358412
-1.11589
1.11208
0.032221
-0.0280087
-0.885294
0.881081
0.0242831
-0.0202675
-0.709592
0.705577
0.0167722
-0.0132236
-0.573061
0.569512
0.0102332
-0.00755694
-0.464822
0.462146
0.00529522
-0.00354045
-0.370079
0.368324
0.00214845
-0.0010834
-0.262315
0.26125
0.000383722
0.000132408
-0.132437
0.131921
-0.000209352
-0.0207871
0.0209964
-0.0787398
0.0779041
0.000835629
-0.00315746
0.00332379
-0.445133
0.444967
-0.0024839
0.000199589
-0.600159
0.602444
0.00291705
-0.00633834
-0.712309
0.71573
0.0101809
-0.0140971
-0.825093
0.829009
0.0181376
-0.0221545
-0.949395
0.953412
0.0266815
-0.0304162
-1.08518
1.08891
0.0349292
-0.0386698
-1.22994
1.23368
0.0422814
-0.0451991
-1.38138
1.3843
0.0474915
-0.0481509
-1.53439
1.53505
0.0475084
-0.0455689
-1.41927
1.41733
0.0430502
-0.039407
-1.10808
1.10444
0.0358175
-0.0318473
-0.876702
0.872732
0.0277872
-0.0238546
-0.701224
0.697292
0.0202719
-0.0165214
-0.565798
0.562047
0.0135073
-0.0104687
-0.458414
0.455375
0.00802135
-0.00572537
-0.364841
0.362545
0.00408493
-0.00256399
-0.257868
0.256347
0.00124635
-0.000243892
-0.129317
0.128315
-0.000112243
-0.0199431
0.0200554
-0.0791917
0.0785034
0.000688272
-0.00217926
0.00231406
-0.44761
0.447475
-0.000956729
-0.00114237
-0.605401
0.6075
0.00433403
-0.00757732
-0.718823
0.722066
0.011252
-0.0147788
-0.832693
0.83622
0.0189327
-0.0226493
-0.957483
0.9612
0.0271341
-0.0312975
-1.09313
1.09729
0.0354847
-0.0395687
-1.23752
1.2416
0.0436305
-0.046691
-1.38718
1.39024
0.0494064
-0.0508785
-1.536
1.53747
0.0507028
-0.0493443
-1.41527
1.41391
0.0469326
-0.0435637
-1.10073
1.09736
0.0401789
-0.0361365
-0.868227
0.864185
0.0321849
-0.0280636
-0.692766
0.688644
0.0243177
-0.0202783
-0.557975
0.553936
0.0169237
-0.0136687
-0.451649
0.448394
0.0107654
-0.00810522
-0.358888
0.356228
0.00600536
-0.00398351
-0.252643
0.250622
0.00223393
-0.000724482
-0.125542
0.124033
4.15941e-05
-0.0189276
0.018886
-0.079884
0.0793502
0.000533776
-0.00114539
0.00103954
-0.450259
0.450364
0.000116865
-0.00247719
-0.610227
0.612587
0.00553825
-0.00859241
-0.725047
0.728101
0.0123176
-0.0156866
-0.839786
0.843155
0.0196838
-0.0235116
-0.965416
0.969243
0.0278997
-0.0320298
-1.10136
1.10549
0.0364386
-0.0405656
-1.24566
1.24978
0.0448373
-0.048662
-1.39364
1.39746
0.051875
-0.0537046
-1.53897
1.5408
0.0542509
-0.0532089
-1.41247
1.41143
0.0512766
-0.0482823
-1.09388
1.09089
0.0448027
-0.0407852
-0.859646
0.855629
0.036802
-0.0324041
-0.684015
0.679617
0.0285411
-0.0241784
-0.549874
0.545511
0.0205865
-0.0168703
-0.444403
0.440686
0.0137711
-0.0107379
-0.35226
0.349227
0.00805736
-0.00549425
-0.246577
0.244014
0.00328093