/*--------------------------------*- C++ -*----------------------------------*\
  =========                 |
  \\      /  F ield         | OpenFOAM: The Open Source CFD Toolbox
   \\    /   O peration     | Website:  https://openfoam.org
    \\  /    A nd           | Version:  9
     \\/     M anipulation  |
\*---------------------------------------------------------------------------*/
FoamFile
{
    format      ascii;
    class       volScalarField;
    location    "55";
    object      p;
}
// * * * * * * * * * * * * * * * * * * * * * * * * * * * * * * * * * * * * * //

dimensions      [0 2 -2 0 0 0 0];

internalField   nonuniform List<scalar> 
8800
(
0.911491
0.863703
0.825014
0.796019
0.775155
0.760325
0.74973
0.742252
0.737436
0.735385
0.73666
0.740855
0.747504
0.756822
0.769604
0.787339
0.812116
0.846057
0.888607
0.947309
0.742741
0.75042
0.757895
0.761203
0.7597
0.754622
0.748136
0.74206
0.737339
0.734501
0.734228
0.73674
0.741233
0.747182
0.753953
0.760234
0.763875
0.763139
0.757719
0.749029
0.721147
0.727306
0.731433
0.734377
0.736425
0.73703
0.735924
0.733821
0.731808
0.730907
0.731876
0.734263
0.737066
0.739249
0.739857
0.738658
0.736316
0.732923
0.728365
0.724604
0.715342
0.717992
0.720743
0.723145
0.724779
0.725939
0.726681
0.7268
0.726508
0.726465
0.727224
0.728399
0.729242
0.729308
0.728699
0.727608
0.725792
0.723221
0.720818
0.719314
0.709968
0.711393
0.71317
0.7152
0.716983
0.718322
0.719311
0.720109
0.720727
0.721298
0.721957
0.722458
0.722559
0.722272
0.721575
0.720326
0.71863
0.716781
0.715473
0.714642
0.704901
0.705821
0.707061
0.708624
0.710254
0.711777
0.71306
0.714127
0.715095
0.715995
0.716692
0.717024
0.716984
0.716544
0.715662
0.714461
0.713132
0.711871
0.711048
0.710496
0.700006
0.700675
0.701635
0.702934
0.70434
0.705794
0.707231
0.708552
0.709753
0.710867
0.711695
0.712067
0.711983
0.711472
0.710664
0.709714
0.708699
0.707773
0.707188
0.706782
0.695237
0.695753
0.696534
0.69766
0.698933
0.700302
0.701743
0.703213
0.704642
0.705984
0.706996
0.707468
0.707441
0.707052
0.706445
0.705716
0.704939
0.704252
0.703817
0.703501
0.690523
0.690934
0.691587
0.692588
0.693787
0.695108
0.696547
0.698099
0.699719
0.701319
0.702568
0.703225
0.703384
0.703208
0.702818
0.702296
0.70172
0.701224
0.700899
0.700642
0.685779
0.686114
0.686677
0.687599
0.688748
0.690052
0.691524
0.693169
0.694971
0.696853
0.698411
0.699352
0.699779
0.699848
0.699681
0.699377
0.69899
0.698651
0.698411
0.698196
0.680919
0.681196
0.681698
0.682572
0.683702
0.685028
0.68657
0.688351
0.690375
0.692581
0.694528
0.695837
0.696585
0.696933
0.69701
0.696922
0.696724
0.696523
0.69635
0.696164
0.675854
0.676087
0.67655
0.677407
0.678557
0.679949
0.681603
0.683571
0.685881
0.688491
0.690915
0.692665
0.693789
0.694456
0.694804
0.69494
0.694927
0.694852
0.694735
0.69457
0.670496
0.670694
0.671137
0.672007
0.673219
0.67472
0.676541
0.678764
0.681438
0.684557
0.68756
0.689834
0.691396
0.692426
0.693075
0.693447
0.693637
0.693679
0.693607
0.693457
0.664745
0.664915
0.665355
0.666267
0.667582
0.669243
0.671297
0.673855
0.676996
0.680746
0.684451
0.687351
0.689426
0.690872
0.691864
0.69252
0.692906
0.693059
0.693028
0.692886
0.658488
0.658633
0.659086
0.660069
0.661533
0.663414
0.66578
0.668765
0.672491
0.677018
0.681575
0.685223
0.687908
0.689842
0.691222
0.692184
0.692795
0.693066
0.693071
0.692935
0.651589
0.65171
0.652189
0.653276
0.654941
0.657112
0.659874
0.663403
0.667861
0.673339
0.678927
0.683471
0.686879
0.68939
0.691224
0.692535
0.693399
0.693791
0.69383
0.693695
0.643876
0.643972
0.644495
0.64572
0.647643
0.650182
0.653453
0.657669
0.663034
0.669677
0.676511
0.682126
0.686386
0.689576
0.691959
0.693682
0.69482
0.695338
0.695409
0.695272
0.635117
0.635218
0.635794
0.637177
0.63943
0.642448
0.646369
0.65145
0.657946
0.666017
0.674349
0.681235
0.6865
0.690483
0.693515
0.695713
0.697167
0.697821
0.697922
0.697779
0.625019
0.625101
0.625766
0.627373
0.630058
0.633691
0.638433
0.644603
0.652505
0.662323
0.672452
0.680839
0.687292
0.692212
0.695985
0.698749
0.700559
0.701356
0.701486
0.701333
0.613212
0.613278
0.614042
0.615962
0.619202
0.623625
0.629421
0.636972
0.646627
0.658574
0.670852
0.681005
0.68884
0.694857
0.699491
0.702911
0.705115
0.70606
0.706214
0.706048
0.599156
0.599211
0.600117
0.602448
0.60642
0.611885
0.619055
0.628379
0.640234
0.654779
0.669604
0.681811
0.69123
0.698511
0.704149
0.70831
0.710938
0.71203
0.712201
0.712019
0.582091
0.582133
0.583255
0.586169
0.591148
0.598023
0.607026
0.618664
0.633295
0.650991
0.668798
0.683357
0.694575
0.703277
0.710038
0.715028
0.718098
0.719325
0.719502
0.7193
0.56089
0.56093
0.562393
0.56618
0.572606
0.581463
0.592978
0.607669
0.625801
0.647292
0.668536
0.685732
0.698955
0.709242
0.717215
0.723112
0.726611
0.727942
0.72811
0.727886
0.533823
0.533882
0.535927
0.541124
0.549787
0.561561
0.576616
0.595365
0.617869
0.643843
0.668982
0.689066
0.704449
0.716454
0.725737
0.732542
0.736412
0.737792
0.73793
0.737682
0.497874
0.49803
0.501273
0.509072
0.521517
0.537739
0.557838
0.581922
0.609797
0.640957
0.670368
0.693508
0.711143
0.724922
0.735581
0.743216
0.74733
0.748673
0.748754
0.748486
0.447299
0.448261
0.454707
0.467846
0.486866
0.509965
0.53702
0.567841
0.602034
0.638952
0.672891
0.699178
0.719093
0.734626
0.746615
0.754915
0.759075
0.760276
0.760282
0.759998
0.373223
0.38041
0.395329
0.418457
0.447287
0.47959
0.515146
0.553733
0.59496
0.638161
0.676989
0.706687
0.729099
0.746587
0.759981
0.768858
0.772988
0.774036
0.773992
0.773744
0.293497
0.310543
0.334734
0.368517
0.407541
0.449205
0.49336
0.539939
0.588633
0.638847
0.683535
0.71755
0.743135
0.763055
0.778216
0.787594
0.791428
0.792227
0.792202
0.792054
0.227072
0.247169
0.279039
0.321853
0.369889
0.420369
0.472849
0.527256
0.583269
0.640309
0.69061
0.728673
0.757231
0.77929
0.795634
0.805088
0.808679
0.809398
0.809407
0.809307
0.172667
0.194414
0.23178
0.280996
0.336147
0.394061
0.453925
0.515538
0.578447
0.641986
0.697613
0.739465
0.770697
0.794588
0.812009
0.821814
0.82557
0.826377
0.826419
0.82636
0.127335
0.150272
0.191421
0.245724
0.306602
0.370657
0.436857
0.504864
0.574075
0.643691
0.704354
0.749786
0.783553
0.809267
0.827832
0.838383
0.842434
0.843175
0.843256
0.843231
0.0888206
0.112436
0.156441
0.214791
0.28048
0.349756
0.42146
0.495157
0.570115
0.645382
0.71079
0.759623
0.795827
0.823319
0.84304
0.854352
0.858745
0.859575
0.859701
0.859708
0.0551119
0.0791816
0.125459
0.187132
0.25689
0.330709
0.407295
0.486123
0.566354
0.64689
0.716771
0.768825
0.807324
0.836481
0.857285
0.869254
0.874027
0.875029
0.875191
0.875209
0.024731
0.0492029
0.0973391
0.161854
0.235121
0.312917
0.393875
0.477378
0.562496
0.647999
0.722136
0.777234
0.817864
0.848475
0.87026
0.882845
0.887969
0.889197
0.889365
0.889379
-0.00326894
0.0215708
0.0712924
0.138254
0.21461
0.295928
0.380817
0.468604
0.558293
0.648523
0.726757
0.784763
0.827382
0.859338
0.881949
0.895007
0.900392
0.901761
0.901938
0.901941
-0.0296775
-0.00442383
0.0468006
0.115832
0.194941
0.2794
0.367844
0.459569
0.553544
0.648306
0.730541
0.791398
0.835913
0.869092
0.892285
0.90575
0.911294
0.912759
0.912935
0.912919
-0.0548621
-0.0291758
0.0232374
0.0942816
0.175817
0.263096
0.354757
0.450109
0.548112
0.647252
0.733447
0.797164
0.843555
0.87786
0.901665
0.915224
0.920867
0.922392
0.92254
0.922495
-0.0792282
-0.0529765
0.000472238
0.0733423
0.157041
0.246848
0.34143
0.440118
0.541905
0.645278
0.735445
0.8021
0.85041
0.885824
0.910106
0.923743
0.929392
0.9309
0.931031
0.930962
-0.102906
-0.0762447
-0.0216149
0.0528571
0.138494
0.230567
0.327789
0.42954
0.534865
0.64233
0.736516
0.806249
0.856598
0.893175
0.917866
0.931478
0.937039
0.938475
0.938584
0.938492
-0.126023
-0.0988285
-0.0431694
0.0327474
0.120121
0.214218
0.31381
0.418346
0.526964
0.638369
0.736623
0.809639
0.862231
0.900057
0.925079
0.938548
0.943939
0.94527
0.945313
0.94519
-0.148703
-0.120924
-0.0642637
0.0129826
0.101897
0.197798
0.299509
0.40656
0.518205
0.633363
0.735717
0.812256
0.8674
0.906621
0.931895
0.945078
0.950148
0.951297
0.951271
0.951125
-0.170958
-0.142511
-0.0849155
-0.00643771
0.0838547
0.181339
0.28493
0.394221
0.508614
0.627291
0.733734
0.81406
0.872149
0.913016
0.9385
0.951182
0.955739
0.956629
0.956536
0.956381
-0.192631
-0.163553
-0.105061
-0.0254901
0.0660249
0.164903
0.270132
0.381404
0.49825
0.620175
0.730606
0.814969
0.876454
0.919379
0.945184
0.957121
0.960835
0.961322
0.961149
0.960985
-0.2137
-0.184022
-0.124687
-0.0441239
0.0484638
0.148549
0.255205
0.368183
0.487187
0.61204
0.726281
0.814858
0.880214
0.925773
0.952329
0.963405
0.96576
0.96547
0.965161
0.965046
-0.234233
-0.203883
-0.143768
-0.0623084
0.0312342
0.13236
0.240233
0.354663
0.475518
0.602946
0.720712
0.813578
0.883228
0.93209
0.960268
0.9709
0.971426
0.969487
0.968702
0.968853
-0.254055
-0.223111
-0.162245
-0.0799818
0.014394
0.116417
0.225313
0.340952
0.463356
0.592987
0.71389
0.810956
0.885202
0.937964
0.968947
0.980578
0.979838
0.975425
0.972641
0.972124
-0.273262
-0.241697
-0.180137
-0.0971719
-0.00208992
0.100678
0.210389
0.326994
0.450636
0.58209
0.705681
0.806716
0.885814
0.942857
0.97768
0.992655
0.993335
0.987233
0.978849
0.964628
-0.291778
-0.259626
-0.197561
-0.114078
-0.0185011
0.0848131
0.19505
0.312314
0.436829
0.569627
0.695445
0.800075
0.88448
0.946012
0.98468
1.00477
1.00769
0.995437
0.975903
0.963873
-0.309428
-0.277032
-0.214321
-0.130493
-0.0344954
0.0691655
0.17952
0.297233
0.422237
0.555856
0.683251
0.790559
0.880396
0.946293
0.985661
1.00556
1.01142
0.988534
0.920688
0.890163
-0.325542
-0.295153
-0.230084
-0.145903
-0.0492991
0.0542357
0.164111
0.281979
0.407076
0.540899
0.669036
0.777861
0.872181
0.943061
0.975699
0.989961
0.98031
0.926526
0.857389
0.814829
-0.381395
-0.31114
-0.244423
-0.161415
-0.0645139
0.0385707
0.148758
0.266271
0.390977
0.524299
0.652203
0.761344
0.856026
0.933533
0.939102
0.942552
0.893869
0.824034
0.747477
0.704856
-0.342709
-0.32661
-0.265834
-0.182038
-0.0869435
0.0160627
0.125238
0.242091
0.365775
0.497601
0.623419
0.730622
0.817263
0.899054
0.886745
0.774251
0.669453
0.596522
0.523224
0.554073
-0.373851
-0.344375
-0.282643
-0.199638
-0.104547
-0.00169598
0.107744
0.223956
0.34656
0.476546
0.599517
0.702367
0.78008
0.823357
0.7754
0.627129
0.499605
0.40844
0.309751
0.360147
-0.397855
-0.365434
-0.302431
-0.219238
-0.124047
-0.0212902
0.0880738
0.203456
0.324659
0.452228
0.571465
0.668101
0.736673
0.745977
0.639959
0.467442
0.314976
0.19638
0.0653636
0.098356
-0.421369
-0.387389
-0.323182
-0.239065
-0.143756
-0.041131
0.0677268
0.182158
0.301777
0.426565
0.541155
0.630085
0.683124
0.661343
0.50334
0.307378
0.117269
-0.0504986
-0.238953
-0.256992
-0.444296
-0.409849
-0.344731
-0.259827
-0.164338
-0.0619086
0.046323
0.159688
0.277474
0.399104
0.50835
0.589528
0.623488
0.565538
0.373491
0.163326
-0.0537631
-0.242953
-0.48496
-0.783223
-0.467527
-0.433065
-0.367383
-0.281969
-0.186263
-0.0839732
0.0237084
0.135981
0.25184
0.370074
0.473681
0.546626
0.559873
0.450857
0.260629
0.0510419
-0.153091
-0.32536
-0.394559
-0.473971
-0.492022
-0.457486
-0.391488
-0.305817
-0.210031
-0.107968
-0.000922594
0.110095
0.223723
0.338062
0.435688
0.497719
0.486162
0.343522
0.160453
-0.0302054
-0.192833
-0.285649
-0.309739
-0.325666
-0.518094
-0.483427
-0.417221
-0.331458
-0.235775
-0.134105
-0.0279285
0.0815435
0.192543
0.30237
0.393526
0.441687
0.412588
0.244019
0.0697424
-0.0959098
-0.222248
-0.26125
-0.274145
-0.275464
-0.545949
-0.511066
-0.44465
-0.358888
-0.263445
-0.16239
-0.0573276
0.0502797
0.158238
0.263006
0.346816
0.380702
0.33247
0.152224
-0.0130809
-0.161461
-0.237603
-0.254648
-0.255899
-0.255684
-0.575653
-0.540468
-0.473799
-0.388107
-0.293058
-0.192812
-0.0891241
0.0162894
0.12082
0.220042
0.295636
0.318152
0.233832
0.068367
-0.0885817
-0.211136
-0.247817
-0.245967
-0.244833
-0.244173
-0.606922
-0.571457
-0.504568
-0.419027
-0.324529
-0.22532
-0.123287
-0.0204011
0.0803323
0.173586
0.240833
0.246464
0.143654
-0.00954447
-0.148157
-0.223983
-0.234301
-0.236945
-0.237649
-0.237293
-0.639205
-0.603587
-0.536704
-0.451425
-0.357675
-0.259758
-0.159668
-0.059662
0.0369531
0.123997
0.182864
0.173369
0.0621166
-0.0755861
-0.190944
-0.222666
-0.231047
-0.232691
-0.232574
-0.232297
-0.672036
-0.636313
-0.569761
-0.484908
-0.392155
-0.295812
-0.197995
-0.10121
-0.00905309
0.0719829
0.120763
0.104284
-0.0137457
-0.130425
-0.219798
-0.235797
-0.228996
-0.228291
-0.228343
-0.228209
-0.704533
-0.668916
-0.602858
-0.518889
-0.427432
-0.333017
-0.23783
-0.144579
-0.0572313
0.0181624
0.0575046
0.0417412
-0.0815712
-0.176785
-0.220939
-0.233063
-0.22986
-0.227101
-0.225954
-0.2256
-0.735095
-0.700213
-0.635049
-0.552445
-0.46275
-0.370684
-0.278538
-0.18912
-0.106782
-0.0369328
-0.000618786
-0.0264528
-0.136324
-0.230563
-0.225982
-0.236298
-0.233051
-0.226718
-0.223928
-0.222816
-0.76216
-0.728361
-0.665199
-0.584402
-0.497077
-0.407895
-0.319274
-0.234028
-0.156639
-0.0924717
-0.0553125
-0.0888109
-0.173494
-0.276658
-0.301189
-0.266414
-0.240198
-0.228348
-0.223867
-0.222067
-0.783583
-0.751561
-0.69124
-0.613352
-0.529138
-0.443515
-0.358981
-0.27833
-0.205787
-0.147104
-0.111296
-0.133608
-0.175006
-0.277946
-0.344699
-0.277205
-0.249869
-0.24217
-0.238152
-0.235467
-0.797155
-0.767879
-0.711289
-0.637418
-0.557422
-0.476225
-0.39647
-0.320873
-0.253332
-0.199829
-0.163977
-0.166657
-0.123366
-0.113218
-0.14714
-0.217826
-0.264232
-0.278204
-0.278021
-0.278371
-0.800213
-0.775047
-0.723387
-0.654761
-0.580221
-0.504606
-0.430402
-0.360435
-0.298308
-0.250338
-0.208577
-0.21424
-0.11706
0.101887
-0.0494974
-0.213812
-0.292063
-0.311151
-0.3156
-0.318401
-0.790557
-0.7703
-0.725318
-0.663745
-0.596013
-0.527073
-0.459343
-0.395651
-0.339872
-0.297719
-0.254115
-0.31422
-0.380756
-0.31949
-0.358709
-0.404124
-0.406432
-0.400541
-0.400652
-0.402326
-0.766201
-0.750944
-0.715264
-0.663091
-0.603701
-0.542462
-0.4819
-0.42483
-0.376242
-0.341481
-0.321075
-0.485272
-0.830143
-1.32803
-1.24845
-0.84928
-0.609844
-0.515971
-0.490448
-0.483813
-0.729528
-0.719702
-0.693918
-0.652862
-0.603096
-0.550272
-0.496937
-0.446248
-0.403472
-0.377943
-0.372048
-0.503354
-0.674728
-0.917164
-0.888742
-0.59559
-0.411064
-0.338486
-0.320672
-0.315086
-0.687021
-0.681508
-0.665958
-0.635688
-0.595915
-0.550939
-0.504091
-0.458339
-0.418394
-0.391956
-0.383315
-0.293337
-0.0187469
0.362068
0.559507
0.386869
0.111588
-0.0445002
-0.07852
-0.0746577
-0.648108
-0.644849
-0.637315
-0.616749
-0.584957
-0.546337
-0.504341
-0.460786
-0.420308
-0.388713
-0.37875
-0.259505
-0.0610185
0.116515
0.0540759
-0.245056
-0.408813
-0.351287
-0.247814
-0.239829
-0.619271
-0.617254
-0.613497
-0.600424
-0.574645
-0.539762
-0.499758
-0.456006
-0.410968
-0.375152
-0.3637
-0.37426
-0.459257
-0.778122
-1.13826
-1.40588
-1.48813
-1.37098
-1.22222
-1.14073
-0.596592
-0.595787
-0.594624
-0.588057
-0.567524
-0.53443
-0.493086
-0.445411
-0.395093
-0.342109
-0.306631
-0.311364
-0.467656
-0.700321
-0.975771
-1.06624
-0.960444
-0.742334
-0.567738
-0.48808
-0.583069
-0.582728
-0.582268
-0.579564
-0.564043
-0.53075
-0.485483
-0.432805
-0.371302
-0.29767
-0.228757
-0.131479
-0.0688041
-0.0168007
0.0374945
0.154353
0.40051
0.63876
0.787959
0.842282
-0.573742
-0.573591
-0.573266
-0.573115
-0.562695
-0.52897
-0.479616
-0.419814
-0.347223
-0.261756
-0.150954
-0.0024474
0.199761
0.488565
0.843307
1.21902
1.55274
1.77566
1.88615
1.91955
-0.566487
-0.566772
-0.567406
-0.568372
-0.560692
-0.52831
-0.476141
-0.409743
-0.328668
-0.225788
-0.100636
0.0233644
0.26581
0.651715
1.12622
1.55776
1.88914
2.08291
2.16562
2.1859
-0.558034
-0.558386
-0.558675
-0.558398
-0.552608
-0.526547
-0.476695
-0.40639
-0.316762
-0.20733
-0.0846085
0.0458936
0.222507
0.605518
1.02744
1.41094
1.68719
1.83572
1.89558
1.9088
-0.559622
-0.557007
-0.547447
-0.533007
-0.530355
-0.527818
-0.486512
-0.410993
-0.314127
-0.201434
-0.0833472
0.0357973
0.162648
0.452361
0.791615
1.0796
1.28773
1.39587
1.43713
1.44548
-0.604088
-0.598082
-0.58473
-0.572175
-0.572963
-0.571371
-0.515903
-0.42302
-0.31513
-0.200118
-0.0894714
0.0141838
0.107042
0.306634
0.547661
0.746811
0.889188
0.960604
0.987371
0.992431
-0.70188
-0.707746
-0.727523
-0.744507
-0.738387
-0.6907
-0.569783
-0.437344
-0.313909
-0.197667
-0.0978243
-0.012819
0.0603805
0.197272
0.352271
0.477389
0.564489
0.607183
0.622659
0.62571
-0.791489
-0.810979
-0.847063
-0.868143
-0.852642
-0.763905
-0.593465
-0.433409
-0.302535
-0.192402
-0.107053
-0.0376633
0.0196812
0.112146
0.20948
0.281926
0.326188
0.34694
0.355789
0.357212
-0.725993
-0.747147
-0.779906
-0.801945
-0.783235
-0.683789
-0.527992
-0.385799
-0.269126
-0.17692
-0.110267
-0.0605543
-0.0193259
0.0412625
0.100187
0.14273
0.166658
0.176988
0.182137
0.183417
-0.468404
-0.484299
-0.509999
-0.531577
-0.523413
-0.462312
-0.374668
-0.287894
-0.212032
-0.148524
-0.10489
-0.0762116
-0.0516497
-0.00475497
0.0365047
0.0631567
0.0772278
0.0829636
0.0858683
0.0864202
-0.154067
-0.161839
-0.17766
-0.199004
-0.214613
-0.213979
-0.198916
-0.172722
-0.141916
-0.110917
-0.0930366
-0.0906104
-0.0879321
-0.0473826
-0.00859799
0.0172414
0.0311205
0.0381638
0.0412463
0.0416047
0.0698005
0.0665069
0.0555054
0.0327759
-0.000629278
-0.034642
-0.0599156
-0.0732252
-0.0745393
-0.069433
-0.071438
-0.0907232
-0.10181
-0.0580136
-0.0198852
0.00384002
0.0174716
0.023812
0.0259431
0.0257435
0.172544
0.170549
0.161882
0.140732
0.105596
0.0642929
0.0268099
-0.00127664
-0.0183852
-0.0265175
-0.0353168
-0.0541611
-0.0582447
-0.0231427
0.00497424
0.0191483
0.0256272
0.0281271
0.0290562
0.0289958
0.1991
0.197616
0.191076
0.174641
0.146586
0.11188
0.076773
0.0469021
0.0258137
0.0149655
0.0112438
0.00900788
0.0203303
0.0392653
0.0474021
0.0506229
0.051116
0.051624
0.0525112
0.0521949
0.191674
0.19066
0.186208
0.174863
0.155093
0.129492
0.101778
0.0767741
0.0584253
0.0511158
0.0573663
0.0749601
0.100769
0.105593
0.0985867
0.0920055
0.0875916
0.086416
0.0853544
0.0848947
0.172375
0.171782
0.168993
0.16167
0.148541
0.130916
0.11099
0.0924992
0.079575
0.0778131
0.0939384
0.124471
0.154901
0.15278
0.139006
0.129663
0.126323
0.126301
0.125947
0.124814
0.150037
0.149741
0.148114
0.143617
0.135271
0.123707
0.110283
0.0977971
0.090006
0.0928443
0.113874
0.147731
0.177555
0.170223
0.15786
0.151572
0.150604
0.151645
0.151279
0.149898
0.127596
0.127502
0.126633
0.123996
0.118878
0.111559
0.102919
0.0949919
0.0908701
0.0958745
0.116661
0.146541
0.168877
0.16171
0.152294
0.150784
0.152782
0.154388
0.153614
0.152092
0.106059
0.106049
0.105598
0.104127
0.101107
0.0966278
0.0912387
0.0863217
0.0841441
0.0885962
0.10528
0.125938
0.13802
0.129527
0.125803
0.12841
0.132003
0.133033
0.132141
0.131062
0.0854735
0.085524
0.0853336
0.0845688
0.0828975
0.0802385
0.0768968
0.0736414
0.0718416
0.0737094
0.0818077
0.0916825
0.0957383
0.0874004
0.0858403
0.0937649
0.0984757
0.0995894
0.0989474
0.0980763
0.0660247
0.0660849
0.0660314
0.0657068
0.0648518
0.0633678
0.0612707
0.0587977
0.0564164
0.0543717
0.0522384
0.0478044
0.0386479
0.0303206
0.0398429
0.0508698
0.0576738
0.0595585
0.0595499
0.0590464
0.0478366
0.0478776
0.0478998
0.047819
0.0474991
0.0467663
0.0454373
0.0433138
0.0402245
0.0344107
0.0222962
0.00218288
-0.0147164
-0.0145748
-0.000813281
0.0124074
0.019255
0.0214924
0.0219115
0.0216762
0.0311778
0.0311935
0.0312306
0.0313371
0.0313808
0.0311265
0.0304257
0.0286392
0.0251537
0.017473
-0.00116508
-0.032855
-0.0555004
-0.0464701
-0.0271421
-0.013513
-0.00841998
-0.00701539
-0.00635355
-0.00629733
0.0162063
0.0161906
0.0162036
0.0163356
0.0165153
0.0165259
0.0161288
0.0152537
0.0129119
0.00667829
-0.0102531
-0.039597
-0.0655916
-0.0505477
-0.0303364
-0.0204608
-0.0177829
-0.0181795
-0.017667
-0.0173533
0.00296437
0.00294982
0.0029169
0.00296083
0.0031752
0.00337273
0.00340404
0.00327286
0.00288837
0.00207945
-0.000620292
-0.00870005
-0.0202013
-0.0174854
-0.0127545
-0.0119163
-0.0123561
-0.0109948
-0.00822093
-0.00693409
-0.00964412
0.157488
0.352662
0.523006
0.659193
0.766534
0.855347
0.93094
0.965356
0.942081
0.293692
0.414569
0.544641
0.65708
0.751881
0.830353
0.893897
0.939013
0.961602
0.97369
0.512948
0.595881
0.684788
0.763322
0.830879
0.887406
0.932366
0.965219
0.988968
1.00696
0.674
0.733344
0.795102
0.852275
0.902009
0.944254
0.978955
1.00664
1.02945
1.04775
0.799611
0.842789
0.888808
0.932671
0.971421
1.00527
1.03425
1.05837
1.07877
1.0966
0.904037
0.936951
0.975104
1.01068
1.04335
1.07263
1.09822
1.11973
1.13759
1.15493
0.996651
1.02537
1.05936
1.09152
1.1215
1.14869
1.17245
1.19219
1.2077
1.22477
1.08528
1.1145
1.14852
1.18058
1.2102
1.2368
1.25968
1.27817
1.29155
1.30858
1.18062
1.21384
1.25049
1.28408
1.31413
1.34033
1.36229
1.37957
1.39144
1.40884
1.29563
1.33346
1.37211
1.40636
1.43572
1.46047
1.48084
1.49674
1.50821
1.52628
1.44058
1.47913
1.51527
1.54596
1.57164
1.59374
1.6128
1.62833
1.64076
1.65875
1.61566
1.64729
1.67347
1.69592
1.71589
1.73462
1.75234
1.76882
1.78417
1.80223
1.80428
1.82148
1.83652
1.85275
1.86866
1.88319
1.8964
1.91033
1.92787
1.94802
1.986
1.99554
2.00708
2.01789
2.02718
2.03676
2.04754
2.05891
2.07027
2.08563
2.19324
2.1969
2.18195
2.16715
2.16087
2.16654
2.18502
2.21534
2.24751
2.27417
2.49956
2.36469
2.28806
2.24567
2.22825
2.23222
2.25961
2.31603
2.41865
2.64301
0.80209
0.799962
0.795478
0.786853
0.774628
0.762498
0.752268
0.744371
0.738753
0.735497
0.735141
0.737877
0.742979
0.7502
0.759586
0.771124
0.783774
0.794807
0.800919
0.803972
0.726545
0.732391
0.738724
0.743215
0.745685
0.745359
0.74262
0.738809
0.735298
0.733036
0.732887
0.735082
0.738742
0.743028
0.746833
0.748714
0.747776
0.744293
0.73913
0.732509
0.71812
0.720416
0.72382
0.726814
0.728888
0.730382
0.731136
0.730818
0.729791
0.728906
0.729078
0.730501
0.732313
0.733615
0.733792
0.732899
0.731347
0.72901
0.725745
0.722824
0.712611
0.713697
0.715529
0.717906
0.719927
0.721353
0.722371
0.72312
0.723519
0.723739
0.724227
0.725029
0.725621
0.725683
0.725266
0.724413
0.722941
0.720854
0.718766
0.717383
0.70741
0.708073
0.70918
0.710882
0.712661
0.71429
0.715583
0.716595
0.717474
0.718261
0.718985
0.71953
0.719716
0.719542
0.718969
0.717909
0.716477
0.714931
0.713611
0.71283
0.702437
0.702897
0.703682
0.704978
0.706461
0.707974
0.709435
0.710728
0.71186
0.71291
0.713818
0.714376
0.714512
0.714228
0.713523
0.712526
0.711395
0.710259
0.709341
0.708824
0.697612
0.697956
0.698566
0.699631
0.70092
0.702289
0.703722
0.705162
0.706528
0.707801
0.708901
0.709579
0.709743
0.709456
0.708846
0.70806
0.707202
0.70633
0.705655
0.705276
0.692881
0.693149
0.69364
0.694545
0.695709
0.696999
0.698387
0.699867
0.701398
0.702908
0.704242
0.705094
0.705378
0.705241
0.704834
0.704263
0.703605
0.702959
0.702464
0.702175
0.688163
0.688376
0.688785
0.689579
0.690661
0.691902
0.693278
0.694802
0.696461
0.698202
0.699816
0.700921
0.701436
0.701533
0.701351
0.700994
0.700539
0.700082
0.699726
0.6995
0.683372
0.683544
0.683894
0.684614
0.685649
0.686867
0.688268
0.689872
0.691683
0.693672
0.695619
0.69707
0.697897
0.698273
0.698334
0.698201
0.697952
0.697665
0.697423
0.697243
0.678421
0.678559
0.678868
0.679543
0.68056
0.6818
0.683264
0.684991
0.687006
0.689296
0.691651
0.693533
0.694736
0.695433
0.695772
0.695875
0.69583
0.695705
0.69556
0.695415
0.673221
0.673333
0.673613
0.674268
0.675303
0.676609
0.678182
0.680083
0.682369
0.685043
0.687901
0.690301
0.691947
0.693015
0.693666
0.694024
0.694187
0.694226
0.694165
0.694048
0.66768
0.667769
0.668033
0.668692
0.66978
0.671196
0.67293
0.675075
0.677709
0.680871
0.684348
0.687369
0.689537
0.691035
0.692035
0.692691
0.693086
0.693276
0.69329
0.693194
0.661691
0.661759
0.662016
0.662704
0.663882
0.665454
0.667415
0.669882
0.672961
0.676734
0.680968
0.684737
0.687525
0.689525
0.690927
0.691914
0.692561
0.692916
0.693
0.692922
0.65513
0.655178
0.655436
0.656173
0.657483
0.659267
0.661527
0.664406
0.66805
0.672578
0.677735
0.682407
0.685933
0.688528
0.690397
0.691753
0.692694
0.693225
0.693379
0.693315
0.647845
0.647875
0.648138
0.648949
0.650434
0.652496
0.655138
0.658543
0.662896
0.668353
0.674632
0.68039
0.684796
0.688092
0.690518
0.692308
0.693583
0.694303
0.694526
0.694473
0.639649
0.639667
0.639931
0.64084
0.642554
0.644959
0.648096
0.652169
0.657408
0.664015
0.67166
0.678714
0.684162
0.688282
0.691363
0.693681
0.695331
0.696258
0.69655
0.696506
0.630233
0.63022
0.630547
0.631592
0.633594
0.636451
0.64022
0.645137
0.651487
0.659512
0.668812
0.677414
0.684091
0.68918
0.693031
0.695964
0.698046
0.699203
0.699568
0.69953
0.619321
0.619283
0.619654
0.620893
0.623264
0.626706
0.631279
0.637266
0.64501
0.654788
0.666091
0.676528
0.684648
0.690876
0.695629
0.699271
0.701855
0.70326
0.703697
0.70366
0.606436
0.606371
0.606819
0.608309
0.611163
0.61537
0.620984
0.628346
0.637849
0.649787
0.663498
0.676108
0.685908
0.693457
0.699268
0.703723
0.70687
0.708539
0.709043
0.709005
0.59094
0.590845
0.591416
0.593255
0.596758
0.601986
0.608985
0.618146
0.629903
0.644522
0.661116
0.676247
0.68797
0.697018
0.704041
0.70942
0.713186
0.715124
0.715686
0.715639
0.571903
0.571781
0.572551
0.574903
0.57932
0.585967
0.594856
0.606416
0.62107
0.639
0.65901
0.677034
0.690928
0.701661
0.710021
0.716434
0.720859
0.723052
0.723653
0.723591
0.547934
0.547795
0.548894
0.552038
0.557831
0.566551
0.578121
0.592946
0.611345
0.633327
0.657322
0.678595
0.69488
0.707459
0.717261
0.724805
0.729879
0.732286
0.732895
0.73281
0.51673
0.51661
0.518317
0.522835
0.530915
0.542861
0.55836
0.577663
0.600855
0.627713
0.656256
0.681093
0.69993
0.714467
0.725811
0.734514
0.740156
0.742686
0.743261
0.743144
0.474175
0.474215
0.477255
0.484634
0.496948
0.514162
0.535479
0.560823
0.589998
0.622558
0.656126
0.684726
0.70619
0.722732
0.735639
0.745441
0.751474
0.753978
0.754465
0.754313
0.412571
0.413754
0.421192
0.434952
0.454995
0.480576
0.510073
0.543097
0.579334
0.618243
0.657139
0.689599
0.713691
0.732188
0.74656
0.757258
0.763457
0.7657
0.766017
0.765837
0.339405
0.341132
0.355374
0.379014
0.409907
0.445374
0.483817
0.52506
0.56891
0.61487
0.659978
0.697232
0.724773
0.745814
0.762032
0.773775
0.780082
0.782179
0.782463
0.782377
0.263845
0.269961
0.291006
0.324813
0.366054
0.411125
0.458482
0.507993
0.559537
0.612659
0.664186
0.706434
0.737554
0.761319
0.77961
0.792211
0.798241
0.799943
0.800167
0.800147
0.20204
0.210445
0.236049
0.276835
0.326163
0.379426
0.434817
0.49207
0.55097
0.611008
0.66869
0.715644
0.750077
0.776239
0.796076
0.809231
0.815245
0.816776
0.817072
0.81711
0.151755
0.160755
0.189896
0.235899
0.291349
0.351219
0.413415
0.477513
0.543127
0.609626
0.673127
0.724531
0.762032
0.790384
0.81171
0.825614
0.831758
0.8337
0.83409
0.834174
0.109614
0.118901
0.150494
0.20049
0.260964
0.326315
0.394275
0.464348
0.535996
0.608454
0.67742
0.733036
0.773473
0.803962
0.826772
0.841648
0.848344
0.850598
0.85103
0.851103
0.0732717
0.0826777
0.116121
0.169318
0.23394
0.303967
0.376952
0.452324
0.529436
0.60739
0.681476
0.741073
0.784294
0.816819
0.84109
0.856875
0.864275
0.866726
0.867231
0.867308
0.0410702
0.0505231
0.0853916
0.141293
0.209396
0.283454
0.360882
0.441018
0.523128
0.606191
0.685104
0.74847
0.794323
0.828705
0.854293
0.870944
0.878975
0.881657
0.882199
0.882274
0.0117463
0.0212507
0.0572878
0.11553
0.18662
0.264203
0.345578
0.430031
0.516752
0.604619
0.688136
0.755104
0.803416
0.839507
0.866244
0.883613
0.892191
0.895072
0.895636
0.895694
-0.0155568
-0.00599279
0.0310915
0.0913167
0.165077
0.245779
0.330684
0.419065
0.510062
0.602475
0.690429
0.760892
0.81156
0.84925
0.876956
0.894915
0.903819
0.906849
0.907437
0.907466
-0.0413921
-0.0317606
0.00630307
0.0682211
0.144382
0.227859
0.315943
0.407906
0.502874
0.599606
0.691884
0.765807
0.818797
0.857982
0.886592
0.904943
0.913994
0.917127
0.917754
0.91776
-0.0662633
-0.0564533
-0.0175378
0.0459923
0.124267
0.210221
0.301175
0.396405
0.495068
0.595914
0.692436
0.76985
0.8252
0.865858
0.895255
0.913902
0.923025
0.926167
0.926774
0.926769
-0.090394
-0.0803521
-0.0406766
0.02441
0.104558
0.192725
0.286264
0.384478
0.486565
0.591327
0.692035
0.773026
0.83084
0.873025
0.903188
0.922043
0.931139
0.934222
0.934782
0.934729
-0.11389
-0.103635
-0.0631323
0.00332375
0.0851523
0.175306
0.271161
0.372081
0.477326
0.585791
0.690639
0.775345
0.835795
0.879636
0.910561
0.929507
0.938477
0.941447
0.941942
0.941871
-0.136902
-0.126337
-0.0850744
-0.0173298
0.0660077
0.15793
0.255853
0.359209
0.467346
0.579291
0.688202
0.776779
0.840119
0.885822
0.917514
0.936427
0.945169
0.947944
0.948338
0.948229
-0.159395
-0.148545
-0.106533
-0.0375833
0.0471186
0.14061
0.240372
0.345901
0.45665
0.571821
0.684683
0.777273
0.843838
0.891699
0.924214
0.94294
0.951253
0.953722
0.953985
0.953844
-0.18142
-0.170255
-0.127444
-0.0574205
0.0285073
0.123382
0.224761
0.332216
0.445293
0.563405
0.680043
0.776753
0.846919
0.897347
0.930862
0.949272
0.956875
0.958852
0.958953
0.958787
-0.202799
-0.191391
-0.147803
-0.0767964
0.0102216
0.106317
0.209088
0.318224
0.433346
0.554099
0.67426
0.775131
0.849267
0.902773
0.9377
0.955812
0.962327
0.963457
0.96329
0.963112
-0.223672
-0.211911
-0.167594
-0.0956894
-0.00770532
0.0894535
0.193443
0.304007
0.4209
0.543982
0.66734
0.772304
0.850723
0.907867
0.944895
0.963133
0.968275
0.967888
0.967073
0.966876
-0.243871
-0.231789
-0.186782
-0.114053
-0.0251934
0.0728781
0.17791
0.289686
0.408062
0.533121
0.659324
0.768173
0.851077
0.912365
0.952363
0.971831
0.976037
0.973399
0.970829
0.969812
-0.263457
-0.251067
-0.205315
-0.131834
-0.0422053
0.0566599
0.162572
0.275342
0.394946
0.521651
0.650283
0.76264
0.85009
0.915857
0.959564
0.981908
0.987148
0.983162
0.97663
0.968052
-0.282346
-0.269701
-0.223285
-0.149185
-0.0589485
0.0405261
0.147097
0.260578
0.381107
0.509075
0.639684
0.755146
0.847247
0.91794
0.965769
0.992537
1.00182
0.998319
0.988277
0.982622
-0.300487
-0.287614
-0.240679
-0.166077
-0.0754257
0.0244812
0.1315
0.245375
0.366499
0.495274
0.627337
0.745306
0.841768
0.917823
0.968949
0.999246
1.01098
1.01187
0.974198
0.922246
-0.317587
-0.304023
-0.257357
-0.182433
-0.0917375
0.00837375
0.11573
0.229849
0.351179
0.480306
0.613169
0.732882
0.83256
0.914931
0.966887
0.99259
1.0044
0.98665
0.930095
0.867761
-0.333972
-0.319489
-0.273184
-0.197541
-0.107419
-0.00733332
0.099561
0.214053
0.335292
0.464341