/*--------------------------------*- C++ -*----------------------------------*\
  =========                 |
  \\      /  F ield         | OpenFOAM: The Open Source CFD Toolbox
   \\    /   O peration     | Website:  https://openfoam.org
    \\  /    A nd           | Version:  9
     \\/     M anipulation  |
\*---------------------------------------------------------------------------*/
FoamFile
{
    format      ascii;
    class       volVectorField;
    location    "55";
    object      U;
}
// * * * * * * * * * * * * * * * * * * * * * * * * * * * * * * * * * * * * * //

dimensions      [0 1 -1 0 0 0 0];

internalField   nonuniform List<vector> 
8800
(
(0.98014 -0.0915213 0)
(1.00234 -0.058731 0)
(0.999575 -0.0321314 0)
(0.999969 -0.0165267 0)
(1.00006 -0.00884727 0)
(1.00008 -0.00510149 0)
(1.00005 -0.0029968 0)
(1.00002 -0.00168525 0)
(0.999998 -0.000783877 0)
(1.00006 -8.56675e-05 0)
(0.999987 0.000622326 0)
(0.999995 0.00137652 0)
(1.00002 0.00240209 0)
(1.00004 0.00400511 0)
(1.00004 0.0067502 0)
(0.999994 0.0120513 0)
(0.99979 0.0230953 0)
(0.999028 0.0431573 0)
(1.00723 0.079026 0)
(0.775025 0.0478395 0)
(0.358986 -0.0147486 0)
(1.0465 -0.0724844 0)
(1.08846 -0.0660226 0)
(1.04943 -0.0509187 0)
(1.02553 -0.037701 0)
(1.01272 -0.0258958 0)
(1.00657 -0.0166988 0)
(1.00363 -0.0102073 0)
(1.00219 -0.00557562 0)
(1.00151 -0.00198111 0)
(1.00138 0.00123203 0)
(1.00173 0.00454053 0)
(1.0027 0.00842925 0)
(1.00474 0.0137421 0)
(1.00897 0.0214184 0)
(1.01795 0.0319089 0)
(1.03578 0.04468 0)
(1.0674 0.05812 0)
(1.09469 0.0699585 0)
(0.84562 0.0555082 0)
(0.217793 -0.00138076 0)
(1.07567 -0.0506498 0)
(1.0994 -0.0489327 0)
(1.06437 -0.0400177 0)
(1.03988 -0.0325591 0)
(1.0238 -0.0253437 0)
(1.01402 -0.0181206 0)
(1.00852 -0.0114959 0)
(1.00566 -0.00573759 0)
(1.00448 -0.000444811 0)
(1.00479 0.00466706 0)
(1.00663 0.00995334 0)
(1.01056 0.0159224 0)
(1.01788 0.0226759 0)
(1.03049 0.0297746 0)
(1.05047 0.0368588 0)
(1.08002 0.0446314 0)
(1.10563 0.0519524 0)
(0.94324 0.041017 0)
(0.217175 0.00140588 0)
(0.176653 -0.000628517 0)
(1.01941 -0.0354583 0)
(1.10571 -0.0414029 0)
(1.07797 -0.0363872 0)
(1.05244 -0.0303417 0)
(1.03522 -0.0244626 0)
(1.02337 -0.0186623 0)
(1.01556 -0.0126593 0)
(1.01095 -0.00655945 0)
(1.00891 -0.000318876 0)
(1.00943 0.00583965 0)
(1.0125 0.0117528 0)
(1.01846 0.0175185 0)
(1.02805 0.0230885 0)
(1.04224 0.0286296 0)
(1.06306 0.034405 0)
(1.09383 0.0402859 0)
(1.09439 0.041804 0)
(0.830133 0.0227871 0)
(0.175597 0.000648647 0)
(0.154749 -0.000462264 0)
(0.958207 -0.025684 0)
(1.10441 -0.0351052 0)
(1.08808 -0.0326551 0)
(1.06126 -0.0281475 0)
(1.04322 -0.0231838 0)
(1.03084 -0.0178772 0)
(1.02225 -0.0123291 0)
(1.01669 -0.00641301 0)
(1.01403 4.47169e-05 0)
(1.01466 0.00650601 0)
(1.01844 0.0123758 0)
(1.02521 0.0176883 0)
(1.03535 0.0226889 0)
(1.05008 0.0275008 0)
(1.072 0.0319333 0)
(1.10096 0.0358055 0)
(1.06962 0.0340037 0)
(0.742425 0.0144654 0)
(0.153167 0.000484902 0)
(0.140072 -0.000334136 0)
(0.901216 -0.0193187 0)
(1.09683 -0.0302094 0)
(1.09623 -0.0293298 0)
(1.06897 -0.0255483 0)
(1.05015 -0.0214636 0)
(1.03719 -0.01676 0)
(1.0282 -0.0115044 0)
(1.02226 -0.00577541 0)
(1.01926 0.000584862 0)
(1.01986 0.00695984 0)
(1.02385 0.0126073 0)
(1.03086 0.0175823 0)
(1.04137 0.0220421 0)
(1.05672 0.0259742 0)
(1.07951 0.0294809 0)
(1.10324 0.032191 0)
(1.0378 0.0281726 0)
(0.675557 0.0103216 0)
(0.137844 0.000361079 0)
(0.129341 -0.000252746 0)
(0.85136 -0.0149226 0)
(1.08449 -0.026111 0)
(1.10192 -0.0264558 0)
(1.07581 -0.0231375 0)
(1.05648 -0.0194852 0)
(1.04309 -0.0152862 0)
(1.03373 -0.0104184 0)
(1.0275 -0.00491349 0)
(1.02429 0.0012596 0)
(1.02478 0.00741643 0)
(1.02877 0.0127803 0)
(1.03594 0.0173328 0)
(1.04673 0.0211902 0)
(1.06245 0.024522 0)
(1.08568 0.0275495 0)
(1.10245 0.0293615 0)
(1.00307 0.0236381 0)
(0.623453 0.00792158 0)
(0.126323 0.000285452 0)
(0.121161 -0.000193988 0)
(0.808876 -0.0117387 0)
(1.06918 -0.0225201 0)
(1.10544 -0.0238333 0)
(1.08206 -0.0209713 0)
(1.06228 -0.0175483 0)
(1.04861 -0.0136336 0)
(1.039 -0.00909109 0)
(1.0325 -0.00386454 0)
(1.02905 0.00207328 0)
(1.02938 0.00796064 0)
(1.03332 0.0129715 0)
(1.04055 0.0170672 0)
(1.05144 0.0204516 0)
(1.06741 0.023387 0)
(1.09102 0.0260967 0)
(1.09878 0.0270006 0)
(0.967925 0.0200711 0)
(0.581625 0.00635662 0)
(0.117184 0.00023372 0)
(0.114819 -0.000149412 0)
(0.773045 -0.00935642 0)
(1.05232 -0.0193598 0)
(1.10778 -0.0214119 0)
(1.08793 -0.0189338 0)
(1.06773 -0.0156736 0)
(1.05381 -0.011932 0)
(1.044 -0.00759635 0)
(1.03728 -0.00261413 0)
(1.03357 0.00305614 0)
(1.03369 0.0086277 0)
(1.03752 0.0132561 0)
(1.04468 0.0169466 0)
(1.05559 0.0199539 0)
(1.07179 0.0225622 0)
(1.0951 0.0249312 0)
(1.09231 0.0250385 0)
(0.933723 0.0173076 0)
(0.547067 0.00528254 0)
(0.109676 0.000197703 0)
(0.109865 -0.000114246 0)
(0.74294 -0.00751147 0)
(1.03497 -0.0165584 0)
(1.10916 -0.0191391 0)
(1.09349 -0.016981 0)
(1.07299 -0.0138262 0)
(1.05879 -0.0101876 0)
(1.04879 -0.0059819 0)
(1.04186 -0.00117753 0)
(1.03788 0.00423801 0)
(1.03773 0.00948565 0)
(1.04133 0.0137532 0)
(1.04836 0.0170882 0)
(1.05927 0.0197528 0)
(1.0757 0.0220646 0)
(1.09791 0.0240615 0)
(1.08341 0.0234159 0)
(0.901061 0.0151952 0)
(0.51772 0.00452975 0)
(0.103305 0.000172742 0)
(0.106007 -8.52577e-05 0)
(0.717741 -0.00602735 0)
(1.01796 -0.0140447 0)
(1.10968 -0.0169415 0)
(1.09894 -0.0150718 0)
(1.07816 -0.0119394 0)
(1.06366 -0.00834351 0)
(1.05344 -0.00421455 0)
(1.04626 0.000465653 0)
(1.04197 0.00565959 0)
(1.04148 0.0105934 0)
(1.04479 0.0145142 0)
(1.05165 0.0174991 0)
(1.06254 0.0198298 0)
(1.07916 0.0218837 0)
(1.09937 0.0234931 0)
(1.07249 0.0221239 0)
(0.870081 0.0136203 0)
(0.492127 0.0040067 0)
(0.097725 0.000156331 0)
(0.103053 -6.02505e-05 0)
(0.696801 -0.00478557 0)
(1.00192 -0.0117525 0)
(1.10951 -0.0147875 0)
(1.10421 -0.0131313 0)
(1.08331 -0.00997929 0)
(1.06848 -0.00637162 0)
(1.058 -0.00225651 0)
(1.05053 0.00234948 0)
(1.04587 0.0073688 0)
(1.04495 0.0120214 0)
(1.04791 0.0156139 0)
(1.05455 0.0182657 0)
(1.0654 0.0202649 0)
(1.08218 0.0220564 0)
(1.09986 0.0232552 0)
(1.05983 0.0211701 0)
(0.840643 0.0124908 0)
(0.4692 0.00365617 0)
(0.0926771 0.000146661 0)
(0.100881 -3.72627e-05 0)
(0.679647 -0.00369752 0)
(0.987291 -0.00961048 0)
(1.10883 -0.0125876 0)
(1.10928 -0.0110657 0)
(1.08852 -0.00787417 0)
(1.07334 -0.00419602 0)
(1.06255 -3.68433e-05 0)
(1.05472 0.00454157 0)
(1.04959 0.00943601 0)
(1.04816 0.0138347 0)
(1.05069 0.0170988 0)
(1.05708 0.0194091 0)
(1.06787 0.0210696 0)
(1.08471 0.02259 0)
(1.09935 0.0233948 0)
(1.04562 0.0205675 0)
(0.812447 0.0117347 0)
(0.448095 0.00343967 0)
(0.0879599 0.00014227 0)
(0.099427 -1.46402e-05 0)
(0.665973 -0.00269371 0)
(0.974441 -0.00754551 0)
(1.10797 -0.0102835 0)
(1.11427 -0.00880867 0)
(1.09387 -0.00553845 0)
(1.07829 -0.0017342 0)
(1.06713 0.00252296 0)
(1.05886 0.00713327 0)
(1.05315 0.0119419 0)
(1.05111 0.0160981 0)
(1.05314 0.0190371 0)
(1.05921 0.0209937 0)
(1.06991 0.0222919 0)
(1.08679 0.0235487 0)
(1.09765 0.0239094 0)
(1.02995 0.0202999 0)
(0.785099 0.0112967 0)
(0.428131 0.00333123 0)
(0.0834126 0.000142187 0)
(0.0986728 9.43479e-06 0)
(0.655621 -0.00171977 0)
(0.963678 -0.00548461 0)
(1.10724 -0.00781334 0)
(1.11931 -0.00630487 0)
(1.09942 -0.00291761 0)
(1.08343 0.0010769 0)
(1.07182 0.00550093 0)
(1.063 0.0102096 0)
(1.0566 0.0149814 0)
(1.05381 0.0189175 0)
(1.05524 0.0215217 0)
(1.06093 0.023112 0)
(1.07152 0.0240168 0)
(1.08834 0.0249773 0)
(1.09469 0.0248392 0)
(1.01281 0.0203929 0)
(0.758173 0.0111424 0)
(0.40875 0.00331499 0)
(0.0789049 0.000145798 0)
(0.0986389 3.10855e-05 0)
(0.648564 -0.000728653 0)
(0.955311 -0.003354 0)
(1.10697 -0.00509669 0)
(1.12454 -0.00344447 0)
(1.10528 0.000122604 0)
(1.08883 0.00437667 0)
(1.07669 0.00903367 0)
(1.0672 0.0139001 0)
(1.05995 0.0186715 0)
(1.05626 0.0223895 0)
(1.05696 0.0246364 0)
(1.0622 0.0258217 0)
(1.07265 0.0263191 0)
(1.08916 0.0269155 0)
(1.09024 0.0262266 0)
(0.994109 0.0208741 0)
(0.731184 0.0112573 0)
(0.389444 0.00338371 0)
(0.0743167 0.000152854 0)
(0.099361 6.95705e-05 0)
(0.644883 0.000292997 0)
(0.949657 -0.00107835 0)
(1.10755 -0.00205427 0)
(1.13019 -0.000142944 0)
(1.11156 0.00368174 0)
(1.09459 0.00827717 0)
(1.08181 0.0132478 0)
(1.07151 0.0183404 0)
(1.06322 0.0231477 0)
(1.05845 0.0266423 0)
(1.05828 0.0285074 0)
(1.06298 0.0292599 0)
(1.07325 0.0293174 0)
(1.0891 0.0294926 0)
(1.08419 0.0281113 0)
(0.973618 0.0217628 0)
(0.703601 0.0116284 0)
(0.369738 0.00352936 0)
(0.0695397 0.000162847 0)
(0.101044 9.68277e-05 0)
(0.644955 0.00145241 0)
(0.947057 0.00142434 0)
(1.10936 0.00141707 0)
(1.13643 0.00369092 0)
(1.11838 0.00788908 0)
(1.10082 0.0129219 0)
(1.08726 0.0183031 0)
(1.07595 0.0236979 0)
(1.06641 0.0285847 0)
(1.06033 0.0318568 0)
(1.05912 0.0332828 0)
(1.06318 0.0335548 0)
(1.07324 0.0331345 0)
(1.08795 0.0328182 0)
(1.07626 0.030573 0)
(0.951031 0.0230959 0)
(0.674867 0.0122553 0)
(0.349185 0.00374858 0)
(0.0644774 0.000175475 0)
(0.103748 0.000143948 0)
(0.64914 0.00287622 0)
(0.948017 0.00430532 0)
(1.11292 0.00544354 0)
(1.14348 0.00825395 0)
(1.12589 0.0129762 0)
(1.10765 0.0185577 0)
(1.09314 0.0244412 0)
(1.0806 0.0302051 0)
(1.06952 0.0351872 0)
(1.06188 0.0381868 0)
(1.05947 0.0390985 0)
(1.06274 0.0388343 0)
(1.07253 0.0378755 0)
(1.08551 0.0370014 0)
(1.06613 0.0337128 0)
(0.925919 0.0249183 0)
(0.644369 0.0131397 0)
(0.327348 0.0040376 0)
(0.05904 0.000190251 0)
(0.107752 0.000205311 0)
(0.658019 0.00455271 0)
(0.952993 0.00771349 0)
(1.11873 0.0101887 0)
(1.15166 0.013737 0)
(1.1343 0.0191523 0)
(1.11522 0.0254122 0)
(1.09953 0.0319154 0)
(1.08546 0.0381195 0)
(1.07252 0.0431914 0)
(1.06303 0.0458391 0)
(1.05923 0.0461561 0)
(1.06157 0.0452698 0)
(1.07104 0.0436824 0)
(1.08177 0.0422003 0)
(1.0534 0.037634 0)
(0.897731 0.0272589 0)
(0.611447 0.0142753 0)
(0.303797 0.00438842 0)
(0.0531503 0.00020624 0)
(0.113385 0.000288788 0)
(0.672291 0.00663985 0)
(0.962644 0.0118518 0)
(1.12734 0.0158996 0)
(1.16127 0.0203854 0)
(1.14385 0.0266981 0)
(1.12372 0.0338064 0)
(1.10655 0.0410614 0)
(1.09059 0.0477537 0)
(1.07538 0.0528752 0)
(1.0637 0.0550537 0)
(1.05827 0.05464 0)
(1.05956 0.0530483 0)
(1.06864 0.0507556 0)
(1.07656 0.0485263 0)
(1.03756 0.0424214 0)
(0.865802 0.0301448 0)
(0.575406 0.0156467 0)
(0.27814 0.00478738 0)
(0.0467556 0.000222077 0)
(0.121151 0.000406686 0)
(0.692882 0.0093662 0)
(0.977846 0.017026 0)
(1.13941 0.0229295 0)
(1.17276 0.0286341 0)
(1.15483 0.0361418 0)
(1.13333 0.044281 0)
(1.11424 0.0523794 0)
(1.09589 0.0595445 0)
(1.07796 0.0645728 0)
(1.06374 0.0660786 0)
(1.0564 0.064749 0)
(1.05655 0.062327 0)
(1.06521 0.0592549 0)
(1.06955 0.0561202 0)
(1.01796 0.0481663 0)
(0.829329 0.033577 0)
(0.535528 0.0172157 0)
(0.250049 0.00521158 0)
(0.0398377 0.000236053 0)
(0.131777 0.000577061 0)
(0.721114 0.0131101 0)
(0.999758 0.0237087 0)
(1.15576 0.0318192 0)
(1.1868 0.0390715 0)
(1.1676 0.0481321 0)
(1.14419 0.0574715 0)
(1.1226 0.0664531 0)
(1.10127 0.0739706 0)
(1.08009 0.0786471 0)
(1.06298 0.0791903 0)
(1.05355 0.0767134 0)
(1.05244 0.0732816 0)
(1.06049 0.0692564 0)
(1.06022 0.0650251 0)
(0.993757 0.0549047 0)
(0.787427 0.0375068 0)
(0.491152 0.0189044 0)
(0.219334 0.00562259 0)
(0.0324336 0.00024547 0)
(0.14654 0.000852931 0)
(0.759014 0.0184739 0)
(1.03001 0.0326841 0)
(1.17729 0.0434959 0)
(1.20408 0.0527099 0)
(1.18246 0.0636453 0)
(1.15635 0.0743038 0)
(1.13147 0.0840555 0)
(1.10647 0.091594 0)
(1.08149 0.0954648 0)
(1.06115 0.0946059 0)
(1.04949 0.0906825 0)
(1.04708 0.0860344 0)
(1.05412 0.0809145 0)
(1.04789 0.0754314 0)
(0.963938 0.0625749 0)
(0.739183 0.0418089 0)
(0.441797 0.0205839 0)
(0.186052 0.00596413 0)
(0.0246594 0.00024705 0)
(0.167606 0.00132698 0)
(0.809812 0.026631 0)
(1.07115 0.0455102 0)
(1.20509 0.0598 0)
(1.22525 0.0717209 0)
(1.19951 0.0843464 0)
(1.16959 0.0961267 0)
(1.14044 0.106133 0)
(1.11101 0.113024 0)
(1.08172 0.115378 0)
(1.05791 0.112521 0)
(1.04397 0.106773 0)
(1.04027 0.100716 0)
(1.04594 0.0946016 0)
(1.03177 0.0872668 0)
(0.92722 0.0709834 0)
(0.683806 0.0462494 0)
(0.387437 0.0220698 0)
(0.15071 0.00616298 0)
(0.0167499 0.000236516 0)
(0.198354 0.00237993 0)
(0.87919 0.0402817 0)
(1.12682 0.0660165 0)
(1.23966 0.084295 0)
(1.25006 0.098831 0)
(1.21814 0.112589 0)
(1.18305 0.124534 0)
(1.14867 0.133677 0)
(1.11419 0.138818 0)
(1.08028 0.138652 0)
(1.05295 0.133059 0)
(1.03678 0.125037 0)
(1.03186 0.117324 0)
(1.03569 0.110107 0)
(1.01074 0.10036 0)
(0.882081 0.0797137 0)
(0.620992 0.0504287 0)
(0.32919 0.0231882 0)
(0.114778 0.00617913 0)
(0.00919742 0.00020892 0)
(0.240281 0.00858323 5.47354e-20)
(0.971232 0.0675016 4.76282e-20)
(1.19481 0.100339 -1.65454e-20)
(1.27792 0.120582 0)
(1.27578 0.137531 -4.1199e-34)
(1.23626 0.150609 5.99698e-21)
(1.19524 0.160986 -1.06488e-20)
(1.15511 0.16789 0)
(1.1152 0.170221 2.15189e-34)
(1.07635 0.166758 -1.28437e-20)
(1.04523 0.157953 0)
(1.02662 0.147453 -1.50957e-20)
(1.02046 0.138116 -4.44249e-20)
(1.02205 0.130216 -2.0958e-20)
(0.9817 0.117566 -6.28814e-21)
(0.823356 0.0908354 -3.73253e-21)
(0.545175 0.055145 0)
(0.265065 0.02436 2.60996e-21)
(0.078574 0.00640006 3.08166e-21)
(0.00215963 0.000226274 5.55376e-20)
(0.269707 0.023964 4.20042e-20)
(1.04719 0.110004 5.28907e-22)
(1.25085 0.149244 4.50371e-21)
(1.312 0.169649 0)
(1.29826 0.186443 -2.12216e-20)
(1.25169 0.19734 -2.39195e-20)
(1.20474 0.20541 -1.08239e-20)
(1.15871 0.209813 -3.80412e-20)
(1.11307 0.209306 0)
(1.06873 0.202593 5.47778e-20)
(1.03313 0.190624 5.40399e-20)
(1.01157 0.17763 1.59999e-20)
(1.00325 0.166321 5.80451e-20)
(0.998094 0.155995 8.13173e-20)
(0.937128 0.138987 0)
(0.745507 0.104159 1.14316e-19)
(0.45689 0.060755 1.63947e-19)
(0.198097 0.025443 1.82088e-19)
(0.0432994 0.0057112 -2.0817e-19)
(-0.00466519 -0.000358794 -3.91686e-21)
(0.270817 0.0396854 0)
(1.09515 0.165123 7.85271e-21)
(1.28842 0.20942 0)
(1.33837 0.229308 -2.89044e-20)
(1.31578 0.243068 0)
(1.2633 0.250143 -4.75603e-20)
(1.2108 0.25451 2.22482e-20)
(1.15918 0.255334 -7.71112e-20)
(1.10807 0.251178 -1.5711e-21)
(1.05845 0.240674 2.84607e-20)
(1.01851 0.225273 1.18706e-19)
(0.99401 0.20968 -2.62635e-22)
(0.983217 0.196322 -4.21567e-20)
(0.971825 0.183566 -7.65783e-20)
(0.896867 0.161573 9.05266e-20)
(0.691312 0.118033 -1.60226e-19)
(0.408041 0.0668144 -2.11619e-20)
(0.167257 0.027007 0)
(0.028611 0.00495244 -7.43098e-24)
(-0.00752617 -0.00110396 0)
(0.264597 0.0533175 1.1384e-19)
(1.12102 0.223571 -5.3871e-20)
(1.31151 0.27409 -3.91914e-20)
(1.35573 0.294153 1.3952e-20)
(1.32697 0.304061 -2.33253e-20)
(1.27004 0.306667 1.0005e-19)
(1.21294 0.306661 4.66205e-20)
(1.15646 0.303296 0)
(1.10042 0.294996 -1.43998e-19)
(1.04594 0.280312 0)
(1.00192 0.261187 -6.24841e-20)
(0.974532 0.242813 -7.66215e-20)
(0.961282 0.227383 -4.59181e-20)
(0.945061 0.212106 -5.56131e-20)
(0.863083 0.185147 0)
(0.656358 0.134247 0)
(0.384429 0.0760361 -1.37661e-19)
(0.15672 0.0305356 2.72326e-20)
(0.0239542 0.00462699 -1.59445e-20)
(-0.00896645 -0.00180784 -1.8654e-20)
(0.257212 0.065394 -5.34291e-20)
(1.13246 0.2819 0)
(1.32415 0.339722 8.40641e-20)
(1.36505 0.360435 4.02551e-20)
(1.33192 0.36656 5.33434e-20)
(1.27173 0.364677 0)
(1.21101 0.360207 4.61426e-20)
(1.15052 0.352495 8.57946e-20)
(1.09024 0.339864 7.41295e-20)
(1.03139 0.320805 1.34064e-19)
(0.983556 0.297786 0)
(0.953415 0.276546 -1.65383e-19)
(0.93784 0.258987 -9.92966e-20)
(0.917903 0.241179 -5.86296e-20)
(0.833906 0.209877 3.58244e-19)
(0.633582 0.152641 4.25677e-20)
(0.375622 0.088326 1.99784e-19)
(0.158922 0.0364038 -9.46595e-19)
(0.0268334 0.00576044 5.60239e-19)
(-0.0087229 -0.00221295 -6.75211e-19)
(0.250156 0.0763207 -3.5448e-20)
(1.13468 0.338279 9.98655e-21)
(1.32923 0.404406 -1.00414e-20)
(1.36792 0.426249 -4.38819e-20)
(1.33159 0.42881 -4.68875e-20)
(1.26895 0.422623 1.79741e-21)
(1.20538 0.413868 -4.99567e-20)
(1.14159 0.401906 8.91535e-20)
(1.07765 0.384987 -1.59606e-19)
(1.01489 0.361572 0)
(0.963571 0.334752 -7.51497e-20)
(0.930793 0.310726 -1.62039e-21)
(0.912872 0.290988 -1.08597e-19)
(0.890125 0.270691 0)
(0.807356 0.235438 -7.77331e-20)
(0.616872 0.173087 -1.84349e-19)
(0.37449 0.102919 4.91136e-19)
(0.166779 0.0445898 -4.83813e-19)
(0.0344924 0.00870771 6.87543e-19)
(-0.00697247 -0.00213052 -7.144e-19)
(0.244258 0.0864442 -4.10713e-22)
(1.13119 0.392057 -6.30819e-21)
(1.32884 0.467147 -3.25548e-20)
(1.36575 0.490383 1.8976e-20)
(1.32705 0.489762 -2.38942e-20)
(1.26255 0.47957 0)
(1.19668 0.466806 -4.73241e-20)
(1.13012 0.450804 -9.36286e-20)
(1.063 0.429766 -8.32349e-20)
(0.996787 0.402151 0)
(0.9423 0.371607 -7.82655e-20)
(0.907009 0.34472 -9.63638e-20)
(0.886821 0.322817 1.17834e-19)
(0.861953 0.300296 -7.13568e-20)
(0.781421 0.261533 -3.3985e-19)
(0.602058 0.194876 2.01767e-19)
(0.375356 0.118778 6.00658e-20)
(0.176379 0.0544036 0)
(0.0438979 0.0130927 -6.65629e-19)
(-0.00449145 -0.00161739 -2.442e-20)
(0.239614 0.0960752 -1.86115e-21)
(1.12429 0.443041 3.9896e-21)
(1.32448 0.527469 1.61045e-20)
(1.35977 0.552129 6.59414e-20)
(1.31921 0.548756 -9.07634e-20)
(1.25332 0.53494 9.97214e-20)
(1.18557 0.518479 1.01915e-19)
(1.11665 0.498701 -1.49741e-19)
(1.04675 0.473783 5.07517e-20)
(0.977428 0.442143 -3.30181e-19)
(0.920013 0.407863 -8.81966e-20)
(0.882403 0.378099 0)
(0.860249 0.354192 1.27804e-19)
(0.833778 0.329724 1.52955e-19)
(0.755148 0.287835 1.82971e-19)
(0.586865 0.217238 -2.19385e-19)
(0.374413 0.13555 -6.49699e-20)
(0.184412 0.0655363 7.63085e-20)
(0.0528618 0.0184877 0)
(-0.00180506 -0.000771521 -5.30496e-20)
(0.236129 0.105373 -2.74303e-21)
(1.11556 0.491337 -5.59621e-21)
(1.31744 0.585405 -1.55644e-20)
(1.35097 0.611146 4.17656e-20)
(1.30889 0.605403 -4.24367e-20)
(1.24193 0.588336 -4.06757e-21)
(1.17265 0.568521 -1.11125e-19)
(1.10171 0.545275 -5.4117e-20)
(1.02933 0.516745 -1.44586e-19)
(0.957129 0.481264 2.9978e-22)
(0.896966 0.443321 -2.76838e-19)
(0.857275 0.410881 2.31916e-19)
(0.833435 0.385158 -1.40307e-19)
(0.80543 0.358616 1.68458e-19)
(0.728497 0.313455 0)
(0.570152 0.23914 -1.19167e-19)
(0.370386 0.152285 -2.10678e-23)
(0.189255 0.0767424 -3.32897e-19)
(0.0597554 0.0240621 -4.88913e-20)
(0.000539481 0.000183128 0)
(0.233661 0.114478 0)
(1.10595 0.537162 -2.50088e-21)
(1.30847 0.640765 -2.18442e-20)
(1.34015 0.667325 -3.99295e-20)
(1.29677 0.659494 -5.19659e-20)
(1.22897 0.63953 0)
(1.15843 0.616696 -5.15646e-20)
(1.08572 0.590308 -1.07424e-21)
(1.0111 0.558468 3.09897e-19)
(0.936199 0.519361 -4.55239e-20)
(0.873443 0.477986 -1.9975e-19)
(0.831851 0.443083 1.20835e-19)
(0.806443 0.415439 -2.20443e-21)
(0.776979 0.386426 1.79205e-19)
(0.701425 0.337958 1.10318e-19)
(0.551543 0.259364 -2.57416e-19)
(0.362924 0.167831 3.04656e-19)
(0.189885 0.0869434 9.016e-20)
(0.0636541 0.0289779 3.71939e-19)
(0.00222782 0.00102155 -9.9342e-19)
(0.232168 0.123517 -8.45405e-21)
(1.09609 0.580703 6.64896e-21)
(1.29835 0.693218 -5.28331e-22)
(1.32789 0.720624 3.45772e-20)
(1.28338 0.710919 0)
(1.21493 0.688384 -4.8168e-20)
(1.14332 0.662862 1.72235e-19)
(1.06907 0.633666 1.19198e-19)
(0.992385 0.598827 0)
(0.914909 0.556369 -6.53803e-19)
(0.84968 0.51182 5.39872e-19)
(0.806275 0.474416 0)
(0.779319 0.444444 1.6376e-19)
(0.748494 0.412761 -2.21556e-21)
(0.673819 0.360479 -3.52679e-19)
(0.530808 0.277321 1.38031e-19)
(0.352239 0.181363 0)
(0.186614 0.0952693 4.86077e-19)
(0.0642857 0.0326187 0)
(0.00313768 0.00160649 -4.69848e-19)
(0.231457 0.132573 1.23668e-20)
(1.08647 0.6221 1.49921e-20)
(1.28733 0.742856 1.20474e-21)
(1.31469 0.771045 0)
(1.26919 0.759656 -4.71259e-20)
(1.20022 0.734848 0)
(1.12771 0.706947 -1.71865e-19)
(1.05208 0.675274 -5.62266e-20)
(0.973471 0.637757 5.50699e-20)
(0.893514 0.59226 -3.23357e-19)
(0.825854 0.544702 5.58824e-20)
(0.780621 0.504525 0)
(0.752159 0.471884 -3.4968e-19)
(0.720028 0.437417 2.19983e-21)
(0.645621 0.380867 0)
(0.50825 0.292795 1.54948e-21)
(0.33839 0.192311 4.44217e-19)
(0.179843 0.10121 -4.1971e-19)
(0.0623029 0.0346618 1.23783e-19)
(0.00332057 0.00184478 0)
(0.231219 0.141502 0)
(1.07733 0.661444 2.21709e-20)
(1.27577 0.78982 7.98502e-21)
(1.30097 0.818644 -2.48063e-21)
(1.25454 0.805728 -1.8028e-20)
(1.18515 0.778913 -1.08676e-19)
(1.1119 0.748933 6.39955e-20)
(1.03503 0.715098 -6.56318e-20)
(0.954606 0.67522 2.44788e-19)
(0.872223 0.627017 -5.16895e-19)
(0.802074 0.576505 -3.80813e-21)
(0.754932 0.533275 -1.53634e-19)
(0.725033 0.497895 5.66929e-19)
(0.691506 0.460488 -2.5824e-21)
(0.616698 0.398949 -2.73264e-19)
(0.483716 0.305592 -4.86975e-19)
(0.321831 0.200405 0)
(0.169995 0.104548 0)
(0.0582048 0.0351686 1.33312e-19)
(0.00296271 0.00175666 -7.82829e-20)
(0.231582 0.150455 2.21661e-20)
(1.06867 0.69859 -5.48247e-20)
(1.26399 0.834176 -8.77564e-21)
(1.287 0.863506 0)
(1.23972 0.84919 -1.53523e-21)
(1.17001 0.820605 -1.02661e-19)
(1.09614 0.788828 1.56726e-19)
(1.01814 0.753131 2.60784e-19)
(0.935998 0.711212 3.18946e-19)
(0.851213 0.660625 -4.2278e-19)
(0.778438 0.607199 -4.63585e-19)
(0.729247 0.560831 4.1082e-19)
(0.697928 0.52279 0)
(0.662772 0.48188 -1.24144e-19)
(0.58706 0.414387 -2.9531e-19)
(0.457794 0.315436 -3.49576e-19)
(0.302862 0.205396 -4.13555e-19)
(0.157448 0.105227 1.22172e-19)
(0.052268 0.0341897 -7.18323e-20)
(0.00225867 0.00144595 2.77342e-22)
(0.232076 0.159328 0)
(1.06066 0.734095 0)
(1.25217 0.876037 2.53324e-21)
(1.273 0.90574 0)
(1.22495 0.890129 4.73924e-20)
(1.155 0.859986 7.23566e-20)
(1.08061 0.826663 0)
(1.0016 0.789381 3.1397e-20)
(0.917829 0.745734 5.33397e-19)
(0.830643 0.693085 -9.71612e-19)
(0.755053 0.636871 0)
(0.703624 0.587521 -2.64225e-19)
(0.670734 0.546761 -3.05702e-21)
(0.633571 0.50128 -2.43191e-21)
(0.556764 0.426901 3.15595e-19)
(0.43088 0.322248 -2.19505e-22)
(0.281832 0.207178 -8.89869e-19)
(0.142872 0.103235 2.62614e-19)
(0.0451365 0.0318257 7.75969e-20)
(0.00133245 0.000928849 0)
(0.232631 0.16805 -1.00727e-19)
(1.05303 0.767923 -4.41613e-20)
(1.24041 0.91547 -4.48317e-20)
(1.25912 0.945432 3.64541e-21)
(1.21041 0.928618 6.87611e-20)
(1.14029 0.897121 0)
(1.06547 0.862483 9.65825e-20)
(0.985551 0.82387 -6.95842e-20)
(0.900241 0.778801 3.87948e-21)
(0.810658 0.724415 7.13715e-20)
(0.732051 0.665683 6.0033e-19)
(0.678113 0.613666 -9.27688e-20)
(0.643276 0.569823 -3.48958e-19)
(0.603657 0.518347 -1.44367e-19)
(0.52594 0.43633 1.71272e-19)
(0.4034 0.325863 -3.13334e-23)
(0.259504 0.205607 2.39489e-19)
(0.12722 0.0987693 -5.64546e-19)
(0.037622 0.0284326 6.67186e-19)
(0.000322198 0.000286915 9.7298e-20)
(0.233069 0.176502 4.00424e-20)
(1.04579 0.800186 -2.61159e-20)
(1.22883 0.952573 6.23223e-21)
(1.24551 0.982698 1.38498e-20)
(1.19621 0.964771 -7.90644e-21)
(1.12599 0.932085 -1.28863e-19)
(1.05085 0.896339 2.90001e-20)
(0.970112 0.856618 -2.90912e-19)
(0.88336 0.810411 -5.89698e-19)
(0.791384 0.754624 -5.79872e-19)
(0.709587 0.693813 0)
(0.652766 0.639492 -4.06432e-19)
(0.615396 0.591899 5.02429e-19)
(0.57281 0.532909 0)
(0.494579 0.442574 -3.66606e-19)
(0.375632 0.325827 2.18282e-19)
(0.236954 0.200445 -2.57227e-19)
(0.111822 0.092222 -3.03491e-19)
(0.030484 0.0244591 -5.36982e-19)
(-0.000624253 -0.000394159 -4.18641e-19)
(0.233832 0.184818 -4.70366e-20)
(1.0388 0.830862 2.79802e-20)
(1.21748 0.987419 6.02067e-20)
(1.23225 1.01762 2.74343e-20)
(1.18245 0.99868 2.08704e-20)
(1.1122 0.964968 -7.24829e-20)
(1.03681 0.928281 9.60719e-20)
(0.955364 0.887666 -3.00258e-19)
(0.867266 0.840588 -3.49657e-19)
(0.772939 0.783743 6.07656e-19)
(0.687808 0.7214 1.31849e-18)
(0.627666 0.665106 0)
(0.586987 0.612953 0)
(0.540805 0.545101 -1.66089e-19)
(0.462351 0.445498 0)
(0.347578 0.321232 4.69052e-19)
(0.215366 0.190952 5.5275e-19)
(0.0986206 0.0836722 0)
(0.0249738 0.0203834 0)
(-0.00135075 -0.000974184 4.49501e-19)
(0.234242 0.192693 5.54678e-20)
(1.03208 0.859939 4.42714e-20)
(1.20644 1.02013 4.46953e-20)
(1.21939 1.05033 -3.4946e-20)
(1.1692 1.03045 1.49727e-20)
(1.09898 0.995847 7.8294e-20)
(1.02343 0.958369 -1.32644e-19)
(0.941369 0.917042 -2.66186e-22)
(0.852037 0.869337 -5.03582e-21)
(0.75542 0.811786 -4.99317e-21)
(0.666873 0.748522 6.79062e-19)
(0.602933 0.690524 0)
(0.558058 0.633085 5.0788e-19)
(0.507436 0.555361 3.54173e-19)
(0.428482 0.445123 8.5347e-19)
(0.318582 0.310877 2.52328e-19)
(0.195898 0.174846 -2.97338e-19)
(0.0914862 0.0707105 -1.7466e-19)
(0.0263601 0.0152803 0)
(-8.71774e-05 -0.000741028 4.82621e-19)
(0.23495 0.200573 -1.29134e-19)
(1.0256 0.887519 0)
(1.19569 1.05076 5.71654e-20)
(1.20696 1.08092 -3.29096e-20)
(1.1565 1.06019 -4.64229e-21)
(1.08636 1.02481 -8.99937e-20)
(1.01075 0.986659 2.61699e-19)
(0.928162 0.94478 -2.42121e-20)
(0.837712 0.896668 0)
(0.73891 0.838746 -6.71921e-19)
(0.646927 0.775181 -1.47706e-18)
(0.578725 0.715732 6.00144e-20)
(0.528762 0.652537 6.99839e-19)
(0.472601 0.564376 0)
(0.391821 0.442036 5.75219e-19)
(0.286415 0.293939 0)
(0.176911 0.147133 0)
(0.0944415 0.0403707 -1.88695e-19)
(0.0549463 -0.00171282 0)
(0.028381 0.0117643 1.29252e-19)
(0.235279 0.207853 -1.4778e-19)
(1.01932 0.913927 0)
(1.18522 1.07951 9.89878e-20)
(1.19491 1.10962 0)
(1.14431 1.08816 -2.26649e-21)
(1.07429 1.05214 0)
(0.99869 1.01346 1.35597e-20)
(0.915648 0.97122 4.14904e-20)
(0.824171 0.922944 4.38454e-20)
(0.723252 0.86502 -7.379e-19)
(0.627796 0.801786 4.44985e-20)
(0.554827 0.741249 4.82029e-19)
(0.498785 0.672103 6.82422e-19)
(0.435539 0.57303 9.18133e-20)
(0.350417 0.43777 4.50222e-19)
(0.246344 0.271506 0)
(0.146899 0.104214 6.25667e-19)
(0.078556 -0.00951204 -3.66481e-19)
(0.0434177 0.0455897 4.25166e-19)
(-0.0689988 0.435395 -5.01622e-19)
(0.235588 0.214933 1.24404e-19)
(1.01299 0.938945 1.86511e-19)
(1.17496 1.1067 0)
(1.1831 1.13688 5.07072e-21)
(1.13244 1.11493 1.64194e-20)
(1.0625 1.07852 1.22151e-19)
(0.986951 1.03958 9.29414e-20)
(0.903418 0.9973 0)
(0.810883 0.949256 2.93013e-19)
(0.707783 0.891927 -3.87869e-20)
(0.608566 0.829792 0)
(0.530009 0.768685 0)
(0.466331 0.693401 6.10792e-19)
(0.394114 0.582266 -2.83284e-19)
(0.301096 0.434427 -4.55486e-19)
(0.19355 0.247388 0)
(0.0856033 0.105861 3.14762e-19)
(0.00471015 0.439816 -3.64425e-19)
(0.0339163 1.88774 -2.0052e-19)
(0.0633152 2.81039 -2.558e-19)
(0.235708 0.221173 -9.59085e-20)
(1.0068 0.962755 -2.43839e-19)
(1.16492 1.13231 6.1422e-20)
(1.17153 1.16256 4.24667e-20)
(1.12092 1.14026 0)
(1.05106 1.10366 7.36003e-20)
(0.975724 1.06469 1.29849e-19)
(0.891663 1.02259 -2.03159e-20)
(0.798119 0.975088 4.36226e-20)
(0.692885 0.918861 7.04751e-19)
(0.589827 0.858475 7.47732e-19)
(0.505203 0.797512 5.39989e-19)
(0.432358 0.716586 6.13834e-19)
(0.350041 0.591201 -6.64389e-19)
(0.249523 0.435434 -6.86962e-19)
(0.128952 0.284884 0)
(0.0453891 0.829002 0)
(0.10245 2.54943 1.74545e-19)
(0.103428 3.20048 0)
(0.106483 3.38785 4.18264e-19)
(0.238389 0.226863 0)
(1.00134 0.985553 0)
(1.15486 1.1562 0)
(1.15997 1.18649 1.4336e-20)
(1.10941 1.16394 1.83029e-20)
(1.03975 1.12744 4.01623e-20)
(0.964903 1.0887 8.45371e-20)
(0.880341 1.04699 -1.99579e-20)
(0.785846 1.00031 3.68657e-19)
(0.678594 0.945691 -9.36475e-21)
(0.571721 0.887663 1.47905e-18)
(0.480733 0.827495 -6.21303e-20)
(0.397139 0.742884 7.44508e-20)
(0.30597 0.597594 9.59619e-20)
(0.186623 0.449005 -4.55072e-21)
(0.102272 0.960556 1.83164e-21)
(0.141983 2.71738 -9.16106e-19)
(0.150328 3.29203 -3.44916e-19)
(0.138908 3.42606 1.79715e-19)
(0.125978 3.44838 -2.00597e-19)
(0.156323 0.18345 5.86555e-20)
(0.990627 1.01011 0)
(1.14446 1.17858 -1.30914e-19)
(1.14895 1.20915 -1.24258e-19)
(1.09878 1.18676 6.79354e-20)
(1.0295 1.15053 -3.653e-20)
(0.954455 1.11165 -8.85945e-20)
(0.869571 1.07061 2.28239e-19)
(0.774228 1.0251 -3.03374e-19)
(0.665197 0.97259 0)
(0.554636 0.917491 7.27928e-19)
(0.457173 0.858465 -4.4142e-19)
(0.361457 0.77542 0)
(0.256135 0.603595 8.94872e-20)
(0.148961 0.763858 2.14668e-19)
(0.157703 2.48768 -2.50806e-19)
(0.215296 3.32306 2.82006e-19)
(0.194887 3.43954 1.52681e-19)
(0.161977 3.46118 1.7222e-19)
(0.139947 3.4715 2.75908e-19)
(0.281782 0.265699 -1.05412e-19)
(0.975673 1.02027 0)
(1.12652 1.20412 1.47359e-19)
(1.13451 1.24038 1.46502e-19)
(1.08176 1.21991 -9.07383e-20)
(1.01181 1.18412 1.19131e-20)
(0.93585 1.14685 9.14175e-20)
(0.850471 1.10704 1.77722e-20)
(0.753865 1.06374 2.92668e-19)
(0.642232 1.01536 6.14554e-19)
(0.526704 0.966477 4.13687e-20)
(0.418404 0.910489 3.93164e-19)
(0.298541 0.817938 6.98183e-20)
(0.215159 0.939098 -8.81284e-20)
(0.231588 2.33686 -2.00865e-19)
(0.293074 3.32607 1.94583e-19)
(0.276137 3.46935 -2.16172e-19)
(0.240431 3.49117 -1.25143e-19)
(0.203024 3.51884 -1.07761e-19)
(0.151375 3.51275 -1.25836e-20)
(0.269759 0.262632 0)
(0.973523 1.04316 4.61093e-20)
(1.11844 1.2277 -3.1506e-20)
(1.12417 1.26405 -1.87257e-20)
(1.0712 1.24318 -6.9686e-20)
(1.00126 1.20763 -5.57795e-21)
(0.924989 1.17052 -5.05506e-20)
(0.839441 1.13153 1.6126e-20)
(0.742365 1.08972 -3.06707e-19)
(0.62959 1.04432 -1.39678e-20)
(0.51143 0.999788 -1.32387e-18)
(0.398385 0.947012 5.60053e-20)
(0.285039 0.884195 -6.60404e-20)
(0.256791 1.48089 -8.18781e-20)
(0.332099 3.09691 1.80059e-20)
(0.352131 3.46732 5.31139e-22)
(0.311529 3.52385 3.20146e-19)
(0.273967 3.55026 1.58772e-19)
(0.225057 3.57375 -4.37839e-20)
(0.165883 3.56972 -6.11077e-20)
(0.253455 0.261068 1.20004e-19)
(0.969799 1.06873 3.18176e-19)
(1.10993 1.25341 -9.08631e-20)
(1.11326 1.28913 -7.06359e-20)
(1.06006 1.26781 0)
(0.990289 1.23233 2.57172e-20)
(0.914001 1.19545 -5.79514e-20)
(0.828562 1.15725 1.43664e-20)
(0.731334 1.11703 -3.40188e-20)
(0.617937 1.07483 -5.62043e-19)
(0.497903 1.03468 -6.13785e-19)
(0.382162 0.985216 -4.61045e-19)
(0.282779 1.01284 -5.01393e-19)
(0.325813 2.19213 5.16866e-19)
(0.418887 3.37585 4.36571e-19)
(0.396499 3.52551 0)
(0.350603 3.57049 0)
(0.312359 3.6114 -3.47743e-20)
(0.261097 3.67184 0)
(0.178121 3.64793 -4.27975e-20)
(0.242682 0.26297 -1.83362e-19)
(0.964102 1.09541 -2.74663e-19)
(1.1 1.28034 0)
(1.10101 1.31498 6.08317e-21)
(1.04765 1.29306 -8.85644e-20)
(0.978201 1.25751 6.24815e-20)
(0.902235 1.22091 -2.82451e-20)
(0.817107 1.18341 9.23842e-21)
(0.719962 1.1447 -2.21993e-19)
(0.606351 1.10565 2.85491e-20)
(0.48529 1.06973 0)
(0.365497 1.02601 0)
(0.306625 1.26608 -4.6029e-19)
(0.409018 2.87205 1.87836e-19)
(0.490884 3.48484 2.4322e-19)
(0.442965 3.55846 0)
(0.402246 3.62208 -2.19094e-20)
(0.36698 3.68158 -3.43878e-20)