/*--------------------------------*- C++ -*----------------------------------*\
  =========                 |
  \\      /  F ield         | OpenFOAM: The Open Source CFD Toolbox
   \\    /   O peration     | Website:  https://openfoam.org
    \\  /    A nd           | Version:  9
     \\/     M anipulation  |
\*---------------------------------------------------------------------------*/
FoamFile
{
    format      ascii;
    class       volScalarField;
    location    "15";
    object      p;
}
// * * * * * * * * * * * * * * * * * * * * * * * * * * * * * * * * * * * * * //

dimensions      [0 2 -2 0 0 0 0];

internalField   nonuniform List<scalar> 
8800
(
0.389521
0.341757
0.303105
0.274146
0.253328
0.238556
0.22802
0.22058
0.215757
0.213611
0.214669
0.218603
0.224999
0.234094
0.246692
0.264291
0.288974
0.322845
0.365322
0.424017
0.220697
0.228377
0.23595
0.239287
0.237829
0.232816
0.226395
0.220379
0.215695
0.212813
0.212377
0.214621
0.21883
0.224519
0.231081
0.237191
0.240707
0.2399
0.234359
0.225592
0.199017
0.205206
0.209403
0.212453
0.214608
0.215314
0.214308
0.212276
0.210256
0.209225
0.209965
0.212067
0.214571
0.216468
0.216831
0.215427
0.2129
0.209353
0.204728
0.20095
0.193089
0.195776
0.198652
0.201199
0.202979
0.204271
0.205119
0.205305
0.205011
0.204845
0.205338
0.20618
0.206686
0.206437
0.20554
0.204184
0.202128
0.199345
0.196809
0.195303
0.187579
0.189036
0.191043
0.193357
0.195395
0.196939
0.198063
0.19893
0.199555
0.20001
0.200348
0.200443
0.200159
0.199504
0.198431
0.196796
0.194707
0.192501
0.191
0.190188
0.182582
0.183512
0.185043
0.186987
0.189007
0.190895
0.192453
0.193639
0.194557
0.19524
0.195609
0.195548
0.195056
0.194099
0.192638
0.190859
0.188991
0.187259
0.186211
0.185709
0.177961
0.178587
0.179944
0.18178
0.183644
0.185467
0.187234
0.1888
0.190031
0.190924
0.191345
0.191193
0.190468
0.189269
0.187813
0.186216
0.184496
0.182919
0.182075
0.18177
0.174388
0.174747
0.175879
0.17753
0.179196
0.180776
0.182267
0.183693
0.185023
0.186106
0.186632
0.186531
0.185986
0.185139
0.184035
0.182695
0.181201
0.179849
0.179224
0.179085
0.172275
0.172472
0.173225
0.174448
0.175801
0.177245
0.178741
0.180214
0.181591
0.182783
0.183496
0.183592
0.183204
0.182448
0.1815
0.180499
0.179438
0.178562
0.17819
0.178124
0.170405
0.170534
0.17093
0.171593
0.172459
0.173466
0.174602
0.175916
0.177328
0.178687
0.179626
0.179988
0.17994
0.179708
0.179239
0.178732
0.178295
0.177937
0.177762
0.177709
0.167745
0.167836
0.168106
0.168569
0.169185
0.170037
0.171186
0.172513
0.173995
0.175543
0.176774
0.177455
0.177687
0.17758
0.177505
0.177394
0.17721
0.177057
0.176962
0.17692
0.164339
0.164397
0.16464
0.165093
0.165683
0.16646
0.167539
0.16891
0.170547
0.172373
0.173961
0.174994
0.175564
0.175858
0.175993
0.176035
0.175988
0.175907
0.175864
0.175838
0.160469
0.160498
0.160728
0.161212
0.161899
0.162691
0.163852
0.165338
0.167179
0.169338
0.171379
0.172856
0.173806
0.174393
0.174767
0.174929
0.174934
0.1749
0.1749
0.174884
0.156287
0.156309
0.156521
0.15701
0.157717
0.158729
0.159992
0.161675
0.163834
0.166468
0.169061
0.171041
0.172414
0.173306
0.173797
0.174147
0.174271
0.174326
0.174363
0.174352
0.1517
0.151731
0.15194
0.152435
0.153204
0.154287
0.155765
0.157754
0.160359
0.163611
0.166897
0.169474
0.171314
0.172561
0.173362
0.17385
0.17412
0.174271
0.174338
0.174325
0.146489
0.146516
0.146761
0.147286
0.148146
0.149395
0.151151
0.153563
0.156766
0.160811
0.164948
0.168247
0.170595
0.17226
0.173365
0.174072
0.174503
0.174748
0.174843
0.174827
0.140437
0.140466
0.140763
0.141385
0.142387
0.14388
0.146017
0.14899
0.152969
0.158025
0.163222
0.167378
0.170434
0.172544
0.17398
0.174921
0.175513
0.175848
0.175972
0.175951
0.133309
0.133345
0.133707
0.134483
0.135722
0.13755
0.140216
0.143933
0.148914
0.155254
0.161779
0.16702
0.170831
0.173506
0.175329
0.176536
0.177303
0.177737
0.17789
0.177862
0.124824
0.124873
0.125337
0.1263
0.127872
0.130208
0.13357
0.138253
0.144529
0.152492
0.160661
0.167201
0.17195
0.175285
0.177569
0.179086
0.180049
0.180591
0.180785
0.18075
0.114614
0.114683
0.115282
0.116524
0.118544
0.121544
0.125833
0.131802
0.139751
0.149753
0.159937
0.168047
0.173926
0.178061
0.180897
0.18279
0.183994
0.184666
0.184902
0.184856
0.102124
0.102219
0.103005
0.104643
0.107297
0.111196
0.116766
0.124442
0.134534
0.147078
0.159717
0.169719
0.176955
0.182045
0.185545
0.187889
0.189383
0.190211
0.190503
0.190444
0.0865634
0.0866904
0.0877542
0.0899819
0.0935475
0.0987355
0.10606
0.11599
0.128833
0.144531
0.16013
0.172382
0.181233
0.187471
0.191773
0.194671
0.196527
0.197542
0.197896
0.197822
0.0667848
0.0669698
0.0684659
0.0715914
0.0765019
0.0835491
0.0933141
0.106277
0.122654
0.142215
0.161321
0.176209
0.186961
0.194572
0.199857
0.203445
0.205762
0.207034
0.207459
0.207363
0.0409962
0.0412909
0.0435174
0.04811
0.0551487
0.0649935
0.0782502
0.0952838
0.116112
0.140302
0.163466
0.181368
0.194317
0.203558
0.210053
0.214523
0.217446
0.219058
0.219587
0.219458
0.00602296
0.00656277
0.0102951
0.0176688
0.0283285
0.042557
0.0608068
0.0831877
0.109479
0.139048
0.16676
0.188001
0.203419
0.214558
0.222535
0.228157
0.231913
0.233995
0.234652
0.234477
-0.0441551
-0.0424306
-0.0348191
-0.0217823
-0.00481448
0.0161559
0.0412842
0.070428
0.103166
0.138741
0.171351
0.196153
0.214248
0.227525
0.237284
0.244403
0.249363
0.252223
0.253111
0.252864
-0.119403
-0.109932
-0.0925388
-0.0692644
-0.0428225
-0.0128816
0.0206566
0.0575982
0.0975041
0.139659
0.177643
0.206456
0.227702
0.243641
0.25578
0.265141
0.272143
0.276571
0.278176
0.278217
-0.199701
-0.178514
-0.150678
-0.117099
-0.0809661
-0.0419605
2.84217e-05
0.0449145
0.0923802
0.141849
0.186248
0.220164
0.245578
0.265115
0.280493
0.292815
0.302614
0.310142
0.313316
0.313519
-0.262886
-0.23936
-0.20332
-0.16154
-0.11691
-0.0695319
-0.0195079
0.0330219
0.0877433
0.144117
0.194379
0.232721
0.261551
0.283854
0.301521
0.315736
0.327019
0.33567
0.338533
0.339014
-0.314122
-0.288464
-0.247694
-0.20001
-0.148843
-0.0946547
-0.0377089
0.0216653
0.0830129
0.14569
0.201135
0.243133
0.274478
0.298514
0.317352
0.332396
0.34426
0.352849
0.356097
0.356605
-0.355716
-0.329362
-0.28517
-0.233098
-0.176843
-0.117153
-0.0543911
0.0109237
0.0781558
0.146477
0.206436
0.251377
0.284526
0.309641
0.329092
0.344425
0.356381
0.364896
0.368344
0.368829
-0.391085
-0.364342
-0.317736
-0.262089
-0.201717
-0.13744
-0.069747
0.000743864
0.0732257
0.146626
0.210661
0.258224
0.292908
0.318848
0.338647
0.354009
0.365868
0.374215
0.377834
0.378306
-0.422149
-0.395254
-0.346798
-0.288278
-0.224438
-0.15621
-0.0841812
-0.00906798
0.0682015
0.146362
0.214245
0.26422
0.300256
0.326868
0.34693
0.362314
0.374083
0.382263
0.385916
0.386388
-0.450383
-0.423352
-0.373382
-0.312438
-0.245618
-0.173959
-0.0980917
-0.0187977
0.0628947
0.145521
0.217069
0.269441
0.306873
0.33423
0.354628
0.3701
0.38183
0.389827
0.393484
0.393986
-0.476613
-0.449451
-0.398225
-0.335171
-0.265794
-0.19113
-0.111842
-0.0287575
0.0570221
0.143951
0.219254
0.274173
0.313147
0.341369
0.362194
0.377828
0.389562
0.397458
0.401019
0.401592
-0.501526
-0.47417
-0.421796
-0.356904
-0.285271
-0.207952
-0.125619
-0.0390899
0.0505571
0.141707
0.220843
0.278494
0.319222
0.348488
0.36988
0.385775
0.397574
0.405398
0.408842
0.409426
-0.525357
-0.497764
-0.444348
-0.377942
-0.304283
-0.224612
-0.139542
-0.0498377
0.0434333
0.138677
0.221738
0.282385
0.32515
0.355704
0.377843
0.394125
0.40607
0.413856
0.417158
0.417692
-0.548469
-0.520516
-0.466275
-0.398435
-0.322989
-0.241224
-0.15369
-0.0611211
0.0355077
0.134733
0.221846
0.285778
0.330897
0.363025
0.386134
0.402955
0.415136
0.422941
0.42609
0.426523
-0.570891
-0.542625
-0.487661
-0.418458
-0.341445
-0.257841
-0.168133
-0.072982
0.026755
0.12981
0.221045
0.288548
0.336388
0.370416
0.394757
0.412307
0.424837
0.432687
0.435712
0.435982
-0.592682
-0.564011
-0.508463
-0.438065
-0.359687
-0.274474
-0.182851
-0.0853966
0.0171714
0.123837
0.21919
0.290524
0.341491
0.377816
0.403686
0.422163
0.435159
0.443079
0.445986
0.446078
-0.613907
-0.584921
-0.528656
-0.457254
-0.377697
-0.291072
-0.197788
-0.0983258
0.00676093
0.116765
0.216155
0.291488
0.345972
0.385053
0.412826
0.43247
0.446048
0.454044
0.456798
0.456721
-0.634611
-0.6052
-0.548288
-0.475998
-0.395412
-0.307589
-0.212887
-0.111709
-0.00442431
0.108586
0.211824
0.291231
0.349538
0.391883
0.422059
0.443177
0.45742
0.465434
0.467924
0.467704
-0.654635
-0.624816
-0.567319
-0.494261
-0.412791
-0.323955
-0.228076
-0.125451
-0.0163042
0.0993371
0.20611
0.289539
0.351897
0.398022
0.431249
0.454287
0.469257
0.477107
0.479218
0.478835
-0.673943
-0.643762
-0.585724
-0.511987
-0.429772
-0.340098
-0.243249
-0.13946
-0.0287816
0.0890712
0.198984
0.286218
0.352706
0.403043
0.440138
0.465908
0.481764
0.488954
0.490306
0.489765
-0.692599
-0.661977
-0.603472
-0.529139
-0.446289
-0.355935
-0.258317
-0.153619
-0.0417419
0.0778916
0.190441
0.281144
0.351594
0.406349
0.448186
0.478091
0.495693
0.501453
0.500851
0.500087
-0.710444
-0.679461
-0.620512
-0.545657
-0.46229
-0.37139
-0.273185
-0.167814
-0.0550499
0.0659304
0.180559
0.274234
0.348287
0.407207
0.454382
0.490329
0.512241
0.517293
0.512248
0.509907
-0.727574
-0.696214
-0.636872
-0.561569
-0.477808
-0.38651
-0.287911
-0.182102
-0.0687711
0.0531249
0.169231
0.26526
0.342496
0.404834
0.45706
0.500717
0.531041
0.541998
0.533918
0.511689
-0.74394
-0.712246
-0.652669
-0.577048
-0.493119
-0.401607
-0.302889
-0.196952
-0.0834426
0.0388104
0.155744
0.253338
0.33335
0.398046
0.452985
0.503655
0.541652
0.552985
0.53794
0.511715
-0.759403
-0.72775
-0.66774
-0.591842
-0.507949
-0.41635
-0.317896
-0.212037
-0.0987306
0.0233237
0.140332
0.238367
0.32046
0.386532
0.437977
0.488262
0.521849
0.522288
0.453425
0.410105
-0.773387
-0.743613
-0.681709
-0.605402
-0.521635
-0.430301
-0.332659
-0.227144
-0.11442
0.00683126
0.123044
0.220339
0.303181
0.371096
0.413285
0.443028
0.461955
0.419986
0.343731
0.29374
-0.826006
-0.756675
-0.694343
-0.619209
-0.535541
-0.444772
-0.347247
-0.242517
-0.130814
-0.0110123
0.103466
0.198966
0.279482
0.352958
0.366293
0.373183
0.345361
0.278991
0.192673
0.14436
-0.785209
-0.7709
-0.712127
-0.63879
-0.555401
-0.465295
-0.369112
-0.2657
-0.155943
-0.0390295
0.0712676
0.162323
0.23507
0.297305
0.304546
0.184848
0.0684349
-0.0115367
-0.0953834
-0.0505248
-0.81291
-0.785695
-0.727248
-0.653669
-0.570956
-0.481377
-0.385317
-0.282972
-0.17487
-0.0606193
0.0457556
0.131692
0.197144
0.230358
0.177645
0.0112472
-0.141863
-0.249852
-0.367865
-0.296241
-0.833771
-0.803104
-0.744431
-0.670472
-0.588038
-0.49881
-0.403213
-0.302115
-0.195949
-0.084839
0.016974
0.0965558
0.152159
0.157797
0.0380471
-0.182081
-0.373139
-0.520057
-0.691264
-0.626037
-0.853555
-0.821595
-0.761994
-0.687485
-0.605095
-0.516216
-0.421442
-0.321695
-0.217624
-0.109993
-0.0134974
0.059182
0.10112
0.0679072
-0.122552
-0.379107
-0.62611
-0.848917
-1.09946
-1.08461
-0.872094
-0.840191
-0.780006
-0.705042
-0.622692
-0.534228
-0.440371
-0.342065
-0.240316
-0.136504
-0.045824
0.0195392
0.0449134
-0.0317382
-0.277787
-0.561309
-0.858094
-1.12635
-1.45609
-1.83268
-0.890515
-0.858957
-0.798651
-0.723465
-0.641169
-0.553091
-0.460081
-0.363223
-0.263863
-0.164007
-0.079266
-0.0217467
-0.013463
-0.13957
-0.415564
-0.704566
-1.00273
-1.25455
-1.35966
-1.52361
-0.909379
-0.878219
-0.818164
-0.742976
-0.66086
-0.573256
-0.48118
-0.385923
-0.289222
-0.193747
-0.115489
-0.0667695
-0.0795236
-0.264302
-0.536626
-0.810182
-1.05347
-1.20651
-1.2362
-1.26633
-0.929038
-0.898244
-0.838486
-0.76357
-0.681771
-0.594792
-0.503851
-0.410456
-0.316778
-0.226289
-0.155147
-0.116103
-0.159787
-0.382509
-0.643434
-0.895231
-1.09186
-1.17146
-1.19216
-1.19565
-0.949635
-0.919099
-0.859704
-0.785112
-0.703748
-0.617576
-0.527966
-0.436691
-0.346421
-0.261536
-0.197968
-0.170686
-0.243674
-0.494538
-0.741647
-0.977302
-1.14677
-1.17419
-1.16921
-1.16698
-0.971014
-0.940742
-0.881654
-0.807479
-0.726676
-0.641444
-0.553347
-0.464448
-0.3779
-0.299168
-0.243744
-0.23054
-0.328682
-0.604634
-0.832774
-1.04012
-1.15492
-1.15968
-1.15083
-1.14703
-0.992901
-0.962877
-0.904143
-0.830481
-0.750318
-0.666159
-0.579741
-0.493456
-0.410869
-0.338693
-0.292442
-0.290715
-0.427724
-0.709604
-0.917438
-1.03106
-1.11043
-1.11389
-1.12176
-1.12249
-1.01466
-0.985169
-0.92693
-0.85376
-0.774303
-0.691354
-0.606769
-0.523254
-0.444837
-0.379446
-0.343445
-0.352239
-0.542208
-0.814515
-1.03095
-1.01389
-1.04846
-1.11025
-1.13233
-1.13716
-1.03577
-1.00677
-0.949549
-0.876844
-0.79818
-0.716479
-0.633881
-0.553189
-0.479056
-0.420276
-0.394832
-0.418318
-0.673389
-0.943393
-1.24904
-1.4129
-1.30225
-1.24461
-1.22875
-1.22743
-1.05564
-1.02737
-0.970969
-0.899023
-0.821309
-0.740941
-0.660284
-0.58237
-0.512369
-0.459793
-0.445168
-0.488787
-0.807447
-1.11846
-1.36153
-1.51105
-1.45453
-1.48877
-1.47883
-1.45255
-1.07313
-1.04594
-0.990585
-0.919436
-0.842694
-0.763793
-0.685111
-0.60973
-0.54335
-0.496369
-0.492249
-0.554303
-0.923996
-1.21548
-1.1064
-0.868828
-1.27359
-1.74499
-1.83547
-1.80926
-1.08714
-1.06139
-1.00735
-0.937035
-0.861303
-0.783911
-0.707155
-0.634146
-0.570221
-0.527559
-0.529236
-0.601044
-1.05526
-1.58712
-2.02051
-2.32991
-2.5695
-2.33656
-2.04499
-2.00771
-1.09635
-1.07245
-1.02004
-0.95055
-0.875879
-0.800002
-0.725137
-0.654163
-0.591457
-0.548405
-0.548396
-0.639893
-1.19944
-2.09966
-3.30253
-4.01939
-4.19753
-3.8411
-3.2904
-2.99663
-1.0996
-1.07776
-1.02709
-0.958655
-0.884994
-0.810738
-0.737967
-0.668766
-0.605357
-0.556465
-0.546763
-0.612661
-1.14283
-1.93497
-2.9311
-3.60814
-3.75445
-3.45421
-3.0456
-2.82763
-1.09471
-1.07546
-1.02682
-0.959335
-0.887039
-0.814881
-0.74463
-0.677013
-0.612315
-0.550929
-0.505843
-0.498561
-0.696741
-1.01461
-1.24104
-1.28171
-1.06909
-0.731447
-0.441996
-0.30916
-1.0794
-1.06243
-1.0165
-0.950608
-0.880413
-0.811066
-0.744207
-0.679675
-0.613594
-0.534888
-0.444323
-0.358854
-0.168187
0.159234
0.607122
1.08378
1.54391
1.87153
2.04279
2.08785
-1.0515
-1.03693
-0.993969
-0.930875
-0.863738
-0.798667
-0.737634
-0.679818
-0.617792
-0.528058
-0.39346
-0.209622
0.0716443
0.595614
1.27353
1.90629
2.38603
2.66613
2.78802
2.81476
-1.00909
-0.996774
-0.957342
-0.898531
-0.836361
-0.777972
-0.726297
-0.682772
-0.638173
-0.555754
-0.391504
-0.14558
0.112125
0.5639
1.16897
1.69889
2.08031
2.29714
2.39477
2.42063
-0.948685
-0.938459
-0.904686
-0.853289
-0.798933
-0.750104
-0.712053
-0.690858
-0.691177
-0.685907
-0.575749
-0.284422
0.0500634
0.362189
0.823803
1.22915
1.52644
1.70714
1.79524
1.82024
-0.873815
-0.865506
-0.839138
-0.797236
-0.753314
-0.716728
-0.696834
-0.711575
-0.798851
-1.01788
-1.15029
-0.801895
-0.301781
0.0355601
0.416022
0.754114
1.0074
1.16438
1.24106
1.24926
-0.788558
-0.782563
-0.762607
-0.731512
-0.699558
-0.675874
-0.674675
-0.731124
-0.947288
-1.51062
-2.11614
-1.64667
-0.933902
-0.475957
-0.0403638
0.294033
0.515262
0.633158
0.681841
0.690278
-0.685634
-0.682959
-0.67089
-0.651024
-0.630808
-0.618398
-0.628716
-0.699718
-0.949836
-1.58436
-2.269
-1.86214
-1.1872
-0.67906
-0.250015
0.0465749
0.217587
0.303076
0.344191
0.352648
-0.575683
-0.575036
-0.567696
-0.555181
-0.542704
-0.536019
-0.547134
-0.605846
-0.804986
-1.29109
-1.74858
-1.47574
-0.984058
-0.545457
-0.228864
-0.045366
0.0436819
0.0846984
0.102078
0.105746
-0.463405
-0.462884
-0.45802
-0.449289
-0.440065
-0.433804
-0.437571
-0.470115
-0.579929
-0.840414
-1.04544
-0.864281
-0.555142
-0.291699
-0.129663
-0.0547616
-0.0222379
-0.00753728
-0.0012992
-9.88576e-05
-0.351068
-0.350979
-0.347595
-0.341114
-0.333456
-0.32596
-0.321486
-0.327718
-0.362197
-0.444245
-0.474303
-0.371236
-0.190394
-0.0775925
-0.0300705
-0.0145434
-0.0110038
-0.0109408
-0.0113537
-0.0117421
-0.245718
-0.245883
-0.244128
-0.239958
-0.234014
-0.226147
-0.216635
-0.206844
-0.199257
-0.189738
-0.140768
-0.0728947
-0.0106319
0.0277917
0.0325674
0.0282433
0.0220981
0.0172326
0.0145884
0.0135634
-0.154849
-0.155216
-0.155092
-0.153442
-0.149682
-0.1429
-0.132292
-0.116729
-0.0940591
-0.0586296
-0.00425707
0.0395857
0.0600077
0.0702872
0.0659665
0.0582431
0.0510468
0.0458953
0.0431419
0.0420513
-0.0834966
-0.0839625
-0.0849385
-0.0851799
-0.0835113
-0.078751
-0.0696259
-0.0543673
-0.0304915
0.00518801
0.0476016
0.0763163
0.0848259
0.0861047
0.0812729
0.0747941
0.0688814
0.0646615
0.062421
0.0614939
-0.0320203
-0.0324741
-0.0338743
-0.0351125
-0.0348527
-0.032024
-0.0253478
-0.0130977
0.00668188
0.0353041
0.0654897
0.0843172
0.0899357
0.0895746
0.0858837
0.081062
0.076565
0.0733357
0.0716342
0.0709117
0.00259818
0.00221898
0.000833057
-0.000759811
-0.00128432
0.000229859
0.00479414
0.0137523
0.0284805
0.0494468
0.0703267
0.0829414
0.0872375
0.0868834
0.0841918
0.0806722
0.077288
0.0748003
0.0735172
0.0729771
0.0244237
0.0241329
0.0229623
0.0214099
0.0204938
0.0210591
0.023993
0.0302439
0.0406504
0.0553391
0.0696402
0.0781626
0.0812548
0.0810433
0.0791679
0.0765812
0.0739896
0.0720468
0.0710739
0.0706801
0.0372301
0.0370144
0.0361103
0.03479
0.0338349
0.0338521
0.0355064
0.0395806
0.0466862
0.056738
0.066394
0.0721311
0.0743485
0.0742323
0.0728251
0.070855
0.0688434
0.0673079
0.0665651
0.066282
0.0440468
0.0438832
0.0432143
0.0421575
0.0413046
0.0410957
0.0420008
0.0445161
0.0491122
0.0558124
0.0623411
0.0662202
0.0676397
0.0674121
0.0662864
0.0647468
0.0631568
0.0619377
0.0613682
0.0611644
0.0470398
0.0469082
0.0463966
0.0455459
0.0447893
0.044433
0.0448384
0.0463813
0.049347
0.0537019
0.0579333
0.0603897
0.0612147
0.0609339
0.060011
0.0587867
0.0575319
0.0565753
0.0561427
0.0559948
0.0475513
0.0474418
0.0470274
0.0463174
0.0456363
0.0451999
0.045247
0.0460415
0.0478223
0.0505801
0.0532967
0.0548477
0.0552761
0.0549332
0.0541528
0.0531751
0.05219
0.0514493
0.0511235
0.0510148
0.0463731
0.0462822
0.0459381
0.0453367
0.0447259
0.0442643
0.0441223
0.0444755
0.0454758
0.0471291
0.0487757
0.0496529
0.0497819
0.0494034
0.0487385
0.0479501
0.0471743
0.0466005
0.0463533
0.0462723
0.0440134
0.0439392
0.0436518
0.0431376
0.0425893
0.0421224
0.0418547
0.0419104
0.0424002
0.0433211
0.044245
0.0446813
0.0446311
0.0442479
0.0436824
0.0430472
0.0424377
0.0419936
0.0418049
0.041744
0.0408262
0.040767
0.040533
0.0401023
0.0396244
0.0391849
0.038864
0.0387444
0.0389029
0.0393433
0.0397971
0.0399425
0.0397768
0.0394026
0.0389205
0.0384056
0.0379234
0.0375769
0.0374317
0.0373858
0.0370773
0.0370304
0.0368442
0.0364919
0.036087
0.0356921
0.0353613
0.0351517
0.0351145
0.0352511
0.0353983
0.0353609
0.035135
0.0347847
0.0343758
0.0339576
0.0335749
0.0333041
0.0331924
0.0331577
0.0329626
0.0329254
0.03278
0.0324989
0.0321653
0.0318245
0.0315118
0.0312649
0.0311189
0.0310755
0.0310416
0.0309016
0.0306526
0.0303351
0.0299909
0.0296519
0.0293483
0.029137
0.029051
0.0290248
0.0286233
0.0285939
0.0284819
0.0282621
0.0279941
0.02771
0.027432
0.0271844
0.0269906
0.0268513
0.0267177
0.0265288
0.026283
0.0260037
0.0257179
0.0254452
0.0252062
0.0250425
0.0249764
0.0249566
0.0241541
0.0241311
0.0240454
0.0238762
0.0236652
0.0234349
0.0231985
0.0229716
0.0227695
0.0225922
0.0224176
0.0222175
0.0219918
0.0217545
0.0215216
0.0213053
0.0211188
0.0209926
0.020942
0.020927
0.0196139
0.0195962
0.0195312
0.0194028
0.0192403
0.0190591
0.0188672
0.0186739
0.0184887
0.0183109
0.0181341
0.0179483
0.0177544
0.0175603
0.0173757
0.0172075
0.0170644
0.0169681
0.0169298
0.0169185
0.0150348
0.0150216
0.0149732
0.0148778
0.0147564
0.0146196
0.0144721
0.0143196
0.0141671
0.0140138
0.0138603
0.0137062
0.0135525
0.0134028
0.0132625
0.0131359
0.0130287
0.0129568
0.0129283
0.01292
0.0104316
0.0104221
0.0103877
0.0103203
0.0102351
0.0101397
0.0100368
0.00992914
0.00981958
0.0097075
0.0095947
0.00948359
0.00937483
0.00927006
0.00917218
0.00908324
0.00900728
0.00895588
0.00893554
0.00892955
0.00580902
0.00580265
0.00578137
0.0057403
0.0056903
0.00563645
0.00557927
0.00551967
0.00545846
0.00539529
0.00533148
0.00526878
0.00520799
0.00514976
0.00509504
0.0050441
0.00499875
0.00496721
0.00495443
0.00495002
0.00117506
0.0011756
0.00117917
0.00117462
0.00116308
0.0011501
0.0011363
0.00112169
0.00110607
0.00108893
0.00107093
0.0010537
0.00103774
0.00102282
0.00100893
0.000995832
0.000983569
0.000974728
0.00097488
0.000977473
-0.795552
-0.560547
-0.297236
-0.08202
0.0926168
0.233551
0.352862
0.453543
0.499928
0.477373
-0.375457
-0.215986
-0.050202
0.092507
0.213769
0.315487
0.398396
0.457788
0.488769
0.499924
-0.0899073
0.015414
0.126115
0.224608
0.309626
0.381022
0.43781
0.479307
0.508353
0.525365
0.108791
0.181052
0.258566
0.328708
0.389693
0.441303
0.483396
0.516488
0.542483
0.560164
0.25847
0.310545
0.365731
0.417872
0.463773
0.503561
0.537217
0.56477
0.58713
0.604598
0.377988
0.416431
0.45995
0.500955
0.538173
0.5712
0.599751
0.623422
0.642565
0.659743
0.47974
0.511518
0.549332
0.584755
0.617594
0.64716
0.672805
0.693916
0.710298
0.727332
0.573957
0.605092
0.641473
0.675568
0.706955
0.735052
0.759132
0.778517
0.792499
0.809562
0.672755
0.707143
0.745218
0.780057
0.811218
0.838359
0.86109
0.878952
0.891263
0.90872
0.789916
0.828353
0.867889
0.902938
0.932979
0.958328
0.979195
0.995477
1.00725
1.02538
0.936209
0.975172
1.01175
1.04291
1.06902
1.09149
1.11085
1.12663
1.13925
1.1573
1.11187
1.14391
1.17038
1.19311
1.21335
1.23228
1.25018
1.2668
1.28227
1.30038
1.30099
1.31836
1.33362
1.35005
1.3661
1.38075
1.39406
1.40808
1.4257
1.44589
1.48309
1.49266
1.50428
1.51514
1.52448
1.53417
1.54509
1.55653
1.56795
1.58333
1.69048
1.69418
1.67924
1.66445
1.65828
1.66403
1.68254
1.7129
1.74511
1.77178
1.99678
1.86193
1.7854
1.74317
1.72576
1.72973
1.75718
1.81358
1.91621
2.14059
0.280105
0.277997
0.273513
0.264927
0.252761
0.240696
0.230533
0.222699
0.217107
0.213807
0.213287
0.215767
0.220598
0.227569
0.236745
0.248118
0.260633
0.271567
0.277638
0.280655
0.204488
0.21035
0.216711
0.221275
0.22381
0.223566
0.22092
0.217177
0.213689
0.211367
0.211046
0.212978
0.216358
0.220381
0.223947
0.22563
0.22454
0.220924
0.215664
0.209012
0.195911
0.19821
0.201689
0.204798
0.206995
0.208608
0.209464
0.209238
0.208267
0.207336
0.207317
0.208445
0.209922
0.210905
0.210805
0.209669
0.207899
0.205369
0.201958
0.198975
0.190288
0.191369
0.193323
0.195911
0.19815
0.199765
0.200927
0.201761
0.202181
0.202335
0.202612
0.20308
0.203325
0.203048
0.202304
0.201125
0.199327
0.196929
0.194597
0.193139
0.185019
0.185648
0.186914
0.18892
0.191018
0.192934
0.194456
0.195609
0.196545
0.197283
0.197768
0.197903
0.197648
0.197045
0.19603
0.194517
0.192625
0.190642
0.188993
0.188145
0.180216
0.180617
0.181598
0.18334
0.185293
0.187258
0.189141
0.190725
0.191915
0.192787
0.193378
0.193573
0.193261
0.192394
0.191005
0.189319
0.187537
0.185781
0.184424
0.183849
0.175974
0.176183
0.176973
0.178574
0.180371
0.182068
0.183677
0.185264
0.186744
0.187962
0.188726
0.188833
0.188352
0.18745
0.186321
0.184995
0.183464
0.181848
0.180664
0.180294
0.173199
0.173286
0.173839
0.175128
0.176683
0.178241
0.179806
0.181276
0.182638
0.183868
0.184768
0.185085
0.184865
0.184238
0.183276
0.18212
0.180842
0.179549
0.178688
0.178479
0.171409
0.171461
0.171783
0.172543
0.173577
0.174715
0.175969
0.177348
0.178791
0.18017
0.181257
0.181759
0.181701
0.181294
0.180679
0.179971
0.179216
0.178521
0.178083
0.177962
0.16918
0.169217
0.169407
0.169815
0.170395
0.17131
0.172279
0.173476
0.174832
0.17628
0.177581
0.178392
0.178699
0.178674
0.178489
0.178094
0.177872
0.177636
0.177461
0.17739
0.16612
0.166144
0.166299
0.166659
0.16718
0.167803
0.168811
0.170055
0.171529
0.173177
0.174764
0.175898
0.176481
0.176702
0.176717
0.176735
0.176657
0.176549
0.176453
0.176411
0.162444
0.162449
0.162576
0.162939
0.163508
0.164172
0.1651
0.166358
0.167927
0.169795
0.171744
0.1733
0.17429
0.174885
0.175235
0.1754
0.175446
0.175389
0.175346
0.175336
0.158412
0.158408
0.158512
0.158873
0.159461
0.160256
0.161378
0.162716
0.164489
0.166681
0.169101
0.171153
0.17256
0.173436
0.174051
0.174399
0.17453
0.174548
0.174563
0.174572
0.154053
0.154041
0.154149
0.154512
0.155133
0.156003
0.157179
0.158767
0.160856
0.163507
0.166522
0.169175
0.171088
0.172413
0.173262
0.173778
0.174054
0.174194
0.174274
0.174294
0.149187
0.149171
0.149299
0.149665
0.150318
0.151277
0.152638
0.154519
0.157047
0.160307
0.164081
0.167475
0.169952
0.171697
0.172872
0.173633
0.174098
0.17437
0.174509
0.174535
0.143593
0.143575
0.143723
0.144141
0.144861
0.145969
0.147589
0.149875
0.152983
0.157033
0.161764
0.166054
0.169186
0.171464
0.173018
0.174049
0.174713
0.175118
0.175314
0.175349
0.13704
0.137018
0.1372
0.137707
0.138575
0.139913
0.141899
0.144721
0.148588
0.153651
0.159582
0.164973
0.168997
0.17184
0.173816
0.175146
0.176022
0.176562
0.176818
0.176862
0.129282
0.129253
0.129485
0.13011
0.131205
0.132897
0.135372
0.138912
0.143774
0.150133
0.157568
0.164321
0.169346
0.17292
0.175393
0.17707
0.178181
0.178865
0.179185
0.179245
0.119979
0.11994
0.120247
0.121065
0.122462
0.124613
0.127778
0.132288
0.138441
0.146444
0.155753
0.164166
0.170401
0.174844
0.177923
0.180011
0.181399
0.182264
0.182666
0.182735
0.108675
0.108624
0.109038
0.110121
0.111947
0.114739
0.118844
0.12463
0.132458
0.142556
0.154185
0.164617
0.172316
0.177803
0.181609
0.184192
0.185911
0.186983
0.187482
0.187569
0.0947226
0.0946637
0.0952417
0.0966997
0.099122
0.10281
0.108179
0.115675
0.12571
0.138465
0.152946
0.165809
0.175262
0.181999
0.186683
0.189871
0.191996
0.19333
0.193951
0.194053
0.0771805
0.0771202
0.0779541
0.0799579
0.0832531
0.0882224
0.0953765
0.105222
0.118142
0.134227
0.15216
0.167904
0.179429
0.187653
0.193395
0.197325
0.199957
0.201609
0.202388
0.202512
0.0545555
0.0545059
0.0557709
0.05865
0.0633138
0.070235
0.0799965
0.0930726
0.109749
0.129961
0.151995
0.171084
0.18501
0.194983
0.201999
0.206846
0.210123
0.212191
0.213163
0.213316
0.0244857
0.0245066
0.0265651
0.0309693
0.0379157
0.0479445
0.0615707
0.0791075
0.100637
0.12586
0.152643
0.175512
0.192155
0.204153
0.212702
0.218701
0.222821
0.225449
0.226675
0.226863
-0.0173153
-0.0170421
-0.0132123
-0.00565615
0.00547406
0.0206403
0.0399943
0.0635555
0.091138
0.122227
0.154317
0.18131
0.200926
0.215203
0.22557
0.233028
0.238293
0.241725
0.243307
0.243527
-0.0788876
-0.0771325
-0.0680696
-0.0537944
-0.0348154
-0.0114591
0.0159128
0.0471214
0.0818373
0.119463
0.157217
0.188513
0.211243
0.227968
0.240377
0.249614
0.256384
0.260939
0.263113
0.263399
-0.152513
-0.149657
-0.132839
-0.107628
-0.0781002
-0.045224
-0.00908584
0.0302973
0.0726884
0.117584
0.162009
0.198796
0.225836
0.246183
0.261763
0.27384
0.283279
0.289628
0.291931
0.292778
-0.228245
-0.219338
-0.194416
-0.159184
-0.120054
-0.0780494
-0.0332802
0.0142185
0.0642609
0.116428
0.167583
0.209894
0.241189
0.26505
0.283699
0.29852
0.3103
0.31852
0.322682
0.32419
-0.286213
-0.276046
-0.246181
-0.204326
-0.157848
-0.108235
-0.0558851
-0.00097917
0.0561908
0.115153
0.172457
0.219573
0.254318
0.28076
0.301367
0.317677
0.330588
0.340073
0.34524
0.346894
-0.333068
-0.322387
-0.289135
-0.242595
-0.190637
-0.135102
-0.0765124
-0.0152141
0.0483054
0.113404
0.176208
0.227401
0.264769
0.292884
0.314543
0.331518
0.344844
0.354645
0.359996
0.361785
-0.371714
-0.361006
-0.325736
-0.275565
-0.219259
-0.158937
-0.0951523
-0.0284112
0.04066
0.111244
0.178932
0.233621
0.273119
0.30249
0.324843
0.342133
0.35554
0.365344
0.370695
0.372483
-0.405185
-0.394544
-0.357747
-0.30473
-0.24489
-0.180557
-0.112338
-0.0408292
0.0332025
0.108762
0.180994
0.238947
0.280356
0.310762
0.333585
0.351012
0.36438
0.374143
0.379503
0.381212
-0.435011
-0.42446
-0.386556
-0.331222
-0.268429
-0.200636
-0.128522
-0.0527733
0.0257716
0.105969
0.182482
0.243495
0.286706
0.318095
0.34139
0.358991
0.372374
0.382092
0.387495
0.389032
-0.462395
-0.451886
-0.413112
-0.355812
-0.290472
-0.219703
-0.144173
-0.0646061
0.0180724
0.102589
0.183215
0.247357
0.292488
0.324978
0.348839
0.366676
0.380125
0.389818
0.395212
0.39664
-0.488098
-0.477612
-0.438037
-0.37904
-0.311512
-0.238127
-0.159574
-0.0765869
0.00988037
0.0985404
0.183312
0.250717
0.297937
0.331679
0.356237
0.374416
0.387991
0.397675
0.403088
0.404405
-0.512552
-0.502054
-0.461782
-0.401306
-0.331837
-0.256132
-0.174895
-0.0888195
0.00118071
0.0938079
0.182707
0.253539
0.303093
0.33832
0.363761
0.382418
0.396214
0.405947
0.411331
0.412594
-0.536117
-0.525555
-0.484617
-0.422894
-0.351672
-0.27391
-0.190266
-0.101378
-0.00812914
0.0882423
0.181263
0.255756
0.307962
0.344969
0.371516
0.390815
0.404944
0.41478
0.420088
0.42134
-0.558999
-0.548287
-0.50667
-0.443891
-0.371105
-0.291539
-0.205756
-0.114361
-0.018152
0.0817787
0.178895
0.257254
0.31246
0.3516
0.379525
0.399653
0.414238
0.424252
0.429479
0.43071
-0.581203
-0.570324
-0.528207
-0.464366
-0.390206
-0.309057
-0.221402
-0.127779
-0.028881
0.0743656
0.175493
0.257888
0.316415
0.358073
0.387713
0.408913
0.424102
0.43436
0.439535
0.440683
-0.602852
-0.591764
-0.549168
-0.484324
-0.408996
-0.326465
-0.237167
-0.141584
-0.0402947
0.0659836
0.170956
0.257491
0.319645
0.364214
0.395977
0.418544
0.434519
0.445101
0.450221
0.451233
-0.623871
-0.612584
-0.569501
-0.503786
-0.427435
-0.343702
-0.252989
-0.155726
-0.0523551
0.0566383
0.165221
0.255885
0.321944
0.369868
0.404216
0.42849
0.445424
0.456354
0.461399
0.462219
-0.644301
-0.632785
-0.589192
-0.522727
-0.445481
-0.360724
-0.268817
-0.170129
-0.0649837
0.0463732
0.158239
0.252905
0.323023
0.374748
0.412233
0.438692
0.456784
0.468005
0.472823
0.47342
-0.663984
-0.652314
-0.608226
-0.5411
-0.463082
-0.377456
-0.284571
-0.1847
-0.0780863
0.0352698
0.150011
0.248427
0.322593
0.378436
0.419712
0.449081
0.468697
0.480033
0.484313
0.484585
-0.68303
-0.671133
-0.626581
-0.558874
-0.480195
-0.393845
-0.300149
-0.199348
-0.0915556
0.0234346
0.140587
0.242357
0.320411
0.380477
0.426175
0.459513
0.481508
0.492741
0.495644
0.495294
-0.70131
-0.689183
-0.644228
-0.575999
-0.496745
-0.40981
-0.315472
-0.213949
-0.105267
0.0109646
0.130055
0.234672
0.316288
0.380395
0.430856
0.469456
0.495683
0.50755
0.50747
0.505057
-0.718862
-0.706547
-0.661128
-0.592431
-0.512696
-0.425293
-0.330461
-0.228419
-0.1191
-0.00197681
0.118549
0.225382
0.310101
0.377758
0.432669
0.477518
0.510753
0.527016
0.524824
0.513252
-0.735623
-0.723158
-0.677388
-0.608307
-0.528243
-0.44056
-0.345439
-0.243157
-0.133514
-0.0159264