/*--------------------------------*- C++ -*----------------------------------*\
  =========                 |
  \\      /  F ield         | OpenFOAM: The Open Source CFD Toolbox
   \\    /   O peration     | Website:  https://openfoam.org
    \\  /    A nd           | Version:  9
     \\/     M anipulation  |
\*---------------------------------------------------------------------------*/
FoamFile
{
    format      ascii;
    class       volVectorField;
    location    "15";
    object      U;
}
// * * * * * * * * * * * * * * * * * * * * * * * * * * * * * * * * * * * * * //

dimensions      [0 1 -1 0 0 0 0];

internalField   nonuniform List<vector> 
8800
(
(0.980067 -0.0915153 0)
(1.00235 -0.0587613 0)
(0.999629 -0.032124 0)
(0.999994 -0.0164653 0)
(0.999997 -0.00875196 0)
(1.00004 -0.00502384 0)
(1.00006 -0.00294572 0)
(1.00005 -0.00166833 0)
(1.00004 -0.000811075 0)
(1.00005 -0.000128215 0)
(1.00004 0.000546247 0)
(1.00004 0.00129405 0)
(1.00006 0.00231741 0)
(1.00006 0.00392048 0)
(1 0.00664496 0)
(1.00002 0.0119603 0)
(0.999895 0.0230625 0)
(0.99913 0.0431776 0)
(1.00714 0.0790526 0)
(0.775007 0.047842 0)
(0.359141 -0.0147392 0)
(1.04659 -0.0723642 0)
(1.08845 -0.0658882 0)
(1.04941 -0.0507926 0)
(1.02557 -0.0376072 0)
(1.0128 -0.0258423 0)
(1.00657 -0.0165758 0)
(1.00362 -0.0100771 0)
(1.00217 -0.00552835 0)
(1.00148 -0.00207843 0)
(1.00136 0.000981406 0)
(1.00174 0.00413859 0)
(1.00274 0.00798636 0)
(1.0048 0.0133379 0)
(1.0091 0.0211397 0)
(1.01809 0.0316672 0)
(1.0359 0.0444027 0)
(1.06742 0.0578581 0)
(1.09486 0.0700727 0)
(0.845958 0.055457 0)
(0.218198 -0.00136276 0)
(1.07597 -0.0503336 0)
(1.09967 -0.0485421 0)
(1.06452 -0.039438 0)
(1.03979 -0.0318263 0)
(1.02353 -0.0246417 0)
(1.01378 -0.0176868 0)
(1.00828 -0.0113706 0)
(1.00546 -0.00587426 0)
(1.00439 -0.000771932 0)
(1.00468 0.00418097 0)
(1.0065 0.00931479 0)
(1.01045 0.015104 0)
(1.01779 0.0216437 0)
(1.03046 0.028648 0)
(1.05068 0.0358581 0)
(1.08047 0.0438811 0)
(1.10622 0.0514296 0)
(0.944154 0.0407638 0)
(0.217874 0.00137555 0)
(0.17753 -0.000602627 0)
(1.02044 -0.0348365 0)
(1.106 -0.0406678 0)
(1.07821 -0.0358557 0)
(1.05244 -0.0298936 0)
(1.03503 -0.023973 0)
(1.02314 -0.0181537 0)
(1.01536 -0.0123016 0)
(1.01078 -0.00651965 0)
(1.00876 -0.00075666 0)
(1.00935 0.00489715 0)
(1.01249 0.0105188 0)
(1.01848 0.0162079 0)
(1.02811 0.0218765 0)
(1.04247 0.0275769 0)
(1.06355 0.0334599 0)
(1.09447 0.0392083 0)
(1.09545 0.0407546 0)
(0.832799 0.0222714 0)
(0.176984 0.000613695 0)
(0.156358 -0.000440103 0)
(0.961022 -0.0245645 0)
(1.10483 -0.0333804 0)
(1.08764 -0.0307624 0)
(1.06087 -0.0264601 0)
(1.04283 -0.0217925 0)
(1.03033 -0.0168275 0)
(1.02166 -0.011759 0)
(1.01606 -0.0064453 0)
(1.01342 -0.000597134 0)
(1.01416 0.00534376 0)
(1.0181 0.0107279 0)
(1.02503 0.0156897 0)
(1.03538 0.0204871 0)
(1.05029 0.0251228 0)
(1.07215 0.0293589 0)
(1.1016 0.0333383 0)
(1.07215 0.0320756 0)
(0.748187 0.0136048 0)
(0.155553 0.000451664 0)
(0.142894 -0.000295691 0)
(0.907679 -0.0173929 0)
(1.09841 -0.0272797 0)
(1.09605 -0.026217 0)
(1.06811 -0.0225657 0)
(1.0488 -0.0189726 0)
(1.0357 -0.0150621 0)
(1.02671 -0.0105964 0)
(1.02087 -0.00564824 0)
(1.01809 -0.000187956 0)
(1.01876 0.00528188 0)
(1.0228 0.0102614 0)
(1.02993 0.0146985 0)
(1.04062 0.0185843 0)
(1.05639 0.0220136 0)
(1.07983 0.025375 0)
(1.10485 0.0282356 0)
(1.04339 0.024975 0)
(0.686686 0.00894334 0)
(0.141771 0.000309847 0)
(0.133883 -0.000222774 0)
(0.864091 -0.0118459 0)
(1.08755 -0.0213198 0)
(1.10098 -0.0217498 0)
(1.07389 -0.0192995 0)
(1.05395 -0.0165162 0)
(1.04039 -0.0132742 0)
(1.03097 -0.00943735 0)
(1.02482 -0.00493748 0)
(1.02175 0.00021499 0)
(1.02244 0.00537515 0)
(1.0266 0.00992569 0)
(1.03399 0.0137238 0)
(1.04509 0.0168699 0)
(1.06138 0.0195515 0)
(1.08534 0.0218287 0)
(1.10455 0.0232613 0)
(1.01385 0.0186483 0)
(0.642932 0.00587962 0)
(0.132377 0.000241301 0)
(0.128382 -0.000115569 0)
(0.832356 -0.00670451 0)
(1.07451 -0.0145922 0)
(1.10255 -0.0163356 0)
(1.07798 -0.0150714 0)
(1.05852 -0.0130253 0)
(1.04521 -0.0104059 0)
(1.03597 -0.00727969 0)
(1.02978 -0.00358846 0)
(1.02655 0.000816735 0)
(1.02714 0.00529348 0)
(1.03122 0.00896397 0)
(1.0384 0.0118831 0)
(1.0492 0.0142638 0)
(1.06501 0.0161098 0)
(1.08846 0.0174499 0)
(1.10082 0.0173629 0)
(0.987152 0.0120601 0)
(0.614696 0.00321958 0)
(0.126409 0.000138153 0)
(0.126192 -6.26502e-06 0)
(0.812786 -0.00299518 0)
(1.06196 -0.00846907 0)
(1.1017 -0.0103592 0)
(1.08019 -0.00982494 0)
(1.06065 -0.00876809 0)
(1.04734 -0.00731408 0)
(1.03807 -0.00514168 0)
(1.03193 -0.00222635 0)
(1.0288 0.00147529 0)
(1.02912 0.00524292 0)
(1.0329 0.00810553 0)
(1.03988 0.0100502 0)
(1.05054 0.0112061 0)
(1.06653 0.0118755 0)
(1.08929 0.0122144 0)
(1.0948 0.0114956 0)
(0.966377 0.00683761 0)
(0.599218 0.00143952 0)
(0.123653 3.583e-05 0)
(0.125899 2.80896e-05 0)
(0.801313 -0.00151194 0)
(1.05202 -0.00561037 0)
(1.10049 -0.00761705 0)
(1.08127 -0.00783699 0)
(1.06254 -0.00705788 0)
(1.0499 -0.00586325 0)
(1.04125 -0.00401837 0)
(1.03546 -0.00132294 0)
(1.03242 0.00215654 0)
(1.03247 0.00560834 0)
(1.03572 0.00819851 0)
(1.042 0.00977274 0)
(1.05187 0.0105907 0)
(1.06673 0.0109332 0)
(1.08846 0.0103456 0)
(1.08865 0.00899345 0)
(0.951107 0.00466174 0)
(0.590566 0.000845807 0)
(0.122634 5.46289e-06 0)
(0.126018 2.56116e-05 0)
(0.79294 -0.00100468 0)
(1.04204 -0.00479522 0)
(1.09773 -0.00793474 0)
(1.0815 -0.00834612 0)
(1.06365 -0.00822134 0)
(1.05156 -0.00686685 0)
(1.04343 -0.00456038 0)
(1.03802 -0.00122816 0)
(1.03493 0.00287621 0)
(1.0347 0.00684515 0)
(1.03741 0.00987479 0)
(1.04294 0.0117715 0)
(1.05206 0.0126102 0)
(1.06624 0.012224 0)
(1.08652 0.0116253 0)
(1.08072 0.00904144 0)
(0.937507 0.00408616 0)
(0.583995 0.000761345 0)
(0.121886 1.62385e-05 0)
(0.126229 1.93429e-05 0)
(0.786337 -0.000520537 0)
(1.03054 -0.00391688 0)
(1.09185 -0.00838872 0)
(1.08075 -0.0104946 0)
(1.06518 -0.0102429 0)
(1.05438 -0.00848014 0)
(1.04702 -0.00538654 0)
(1.04185 -0.0012229 0)
(1.0386 0.00376606 0)
(1.03805 0.00859974 0)
(1.0402 0.0123383 0)
(1.04493 0.014776 0)
(1.05279 0.0160016 0)
(1.06489 0.0157195 0)
(1.08182 0.0137806 0)
(1.0689 0.00921943 0)
(0.924079 0.00359665 0)
(0.578299 0.000722412 0)
(0.121006 3.11745e-05 0)
(0.126615 2.94795e-05 0)
(0.78215 6.64168e-05 0)
(1.01935 -0.0022462 0)
(1.08283 -0.0067519 0)
(1.07885 -0.0099706 0)
(1.06636 -0.010112 0)
(1.05769 -0.0082465 0)
(1.05113 -0.00483359 0)
(1.04612 -0.000327492 0)
(1.04273 0.00504067 0)
(1.04172 0.0101852 0)
(1.0433 0.0140004 0)
(1.04703 0.0164366 0)
(1.05318 0.0172778 0)
(1.06306 0.0169047 0)
(1.07333 0.0136399 0)
(1.05447 0.00799648 0)
(0.912208 0.00286755 0)
(0.573601 0.000654192 0)
(0.120042 3.75279e-05 0)
(0.127353 3.95795e-05 0)
(0.78098 0.000707142 0)
(1.01153 -0.000256104 0)
(1.07421 -0.00332115 0)
(1.07499 -0.00595184 0)
(1.06753 -0.00656412 0)
(1.06087 -0.00515951 0)
(1.05514 -0.00218556 0)
(1.05032 0.00192905 0)
(1.04674 0.00685292 0)
(1.04518 0.0114056 0)
(1.04598 0.0145558 0)
(1.04861 0.0161874 0)
(1.05297 0.0164696 0)
(1.05904 0.0147735 0)
(1.06372 0.0111374 0)
(1.0414 0.00614438 0)
(0.903219 0.00229244 0)
(0.569778 0.000632209 0)
(0.119063 4.04575e-05 0)
(0.128467 5.51146e-05 0)
(0.781966 0.00115819 0)
(1.00804 0.00135866 0)
(1.06887 7.62213e-06 0)
(1.07239 -0.00146014 0)
(1.0681 -0.00176503 0)
(1.06331 -0.000644903 0)
(1.05851 0.00175599 0)
(1.05395 0.00517664 0)
(1.05009 0.00916465 0)
(1.0478 0.0125473 0)
(1.04772 0.0143808 0)
(1.04896 0.0148495 0)
(1.05136 0.0140143 0)
(1.05435 0.0118718 0)
(1.05549 0.00860084 0)
(1.0317 0.0048639 0)
(0.896695 0.00212858 0)
(0.566255 0.000706281 0)
(0.118001 4.73316e-05 0)
(0.12995 7.06409e-05 0)
(0.785007 0.00161195 0)
(1.00808 0.00256382 0)
(1.06692 0.00255944 0)
(1.07161 0.00228509 0)
(1.06899 0.00264221 0)
(1.0654 0.00392245 0)
(1.06125 0.00607549 0)
(1.05682 0.0089251 0)
(1.05254 0.0119811 0)
(1.04939 0.0141867 0)
(1.04809 0.0148691 0)
(1.04804 0.0142483 0)
(1.04876 0.0125901 0)
(1.04979 0.0102297 0)
(1.04896 0.00738587 0)
(1.0247 0.00452171 0)
(0.891324 0.00234093 0)
(0.5624 0.000867909 0)
(0.116723 6.03841e-05 0)
(0.131852 8.8074e-05 0)
(0.789603 0.0020635 0)
(1.01032 0.00360203 0)
(1.06776 0.00450937 0)
(1.07269 0.00521947 0)
(1.07075 0.00639547 0)
(1.06767 0.00818384 0)
(1.06378 0.0104537 0)
(1.05919 0.0130292 0)
(1.05422 0.0153981 0)
(1.05001 0.0165578 0)
(1.04745 0.0160942 0)
(1.04608 0.0147084 0)
(1.04555 0.0125548 0)
(1.04537 0.0100556 0)
(1.04354 0.00743524 0)
(1.01898 0.00493152 0)
(0.885967 0.00282226 0)
(0.557744 0.00109776 0)
(0.115116 7.86154e-05 0)
(0.134269 0.000110881 0)
(0.795794 0.00262367 0)
(1.01461 0.00470398 0)
(1.07066 0.00628471 0)
(1.0755 0.00785756 0)
(1.0736 0.00987299 0)
(1.07052 0.0123112 0)
(1.06646 0.0150116 0)
(1.06134 0.0176487 0)
(1.05537 0.0196134 0)
(1.04983 0.0199726 0)
(1.04597 0.0186605 0)
(1.04344 0.016456 0)
(1.04188 0.013826 0)
(1.04086 0.0111024 0)
(1.03843 0.00844189 0)
(1.01345 0.00590326 0)
(0.879932 0.00352539 0)
(0.551954 0.00138387 0)
(0.113093 9.99217e-05 0)
(0.137369 0.000142028 0)
(0.803856 0.0033437 0)
(1.02079 0.00606775 0)
(1.07539 0.00835787 0)
(1.07979 0.0106711 0)
(1.07761 0.013547 0)
(1.07421 0.0168198 0)
(1.06956 0.0201536 0)
(1.06352 0.0230768 0)
(1.05617 0.024848 0)
(1.04905 0.0245448 0)
(1.04373 0.022441 0)
(1.04006 0.019448 0)
(1.03759 0.0162133 0)
(1.03589 0.0130871 0)
(1.03297 0.0101468 0)
(1.00738 0.00729638 0)
(0.872847 0.00442089 0)
(0.544764 0.00173603 0)
(0.110559 0.000123863 0)
(0.141417 0.000191627 0)
(0.81434 0.00435811 0)
(1.02889 0.00793038 0)
(1.08181 0.0109608 0)
(1.08563 0.0140864 0)
(1.08296 0.0179293 0)
(1.07887 0.0221814 0)
(1.07323 0.0262822 0)
(1.06581 0.0296369 0)
(1.05666 0.0313532 0)
(1.04763 0.0304365 0)
(1.04071 0.0274652 0)
(1.03581 0.0236045 0)
(1.03244 0.0196019 0)
(1.0301 0.0158581 0)
(1.02672 0.0124144 0)
(1.00032 0.00902844 0)
(0.864094 0.00552266 0)
(0.535882 0.00217897 0)
(0.107413 0.000153316 0)
(0.14677 0.000265799 0)
(0.827997 0.0058015 0)
(1.0394 0.0105028 0)
(1.09025 0.0144253 0)
(1.09329 0.0185372 0)
(1.08983 0.0235332 0)
(1.08462 0.0288578 0)
(1.07748 0.0338489 0)
(1.06819 0.0377728 0)
(1.05678 0.0394731 0)
(1.04547 0.0378857 0)
(1.03671 0.0339229 0)
(1.03047 0.0290228 0)
(1.02615 0.0240478 0)
(1.02315 0.0194626 0)
(1.01926 0.0153136 0)
(0.991787 0.0112325 0)
(0.85324 0.00688814 0)
(0.524826 0.00270814 0)
(0.103533 0.000189099 0)
(0.15393 0.000372292 0)
(0.845704 0.00786887 0)
(1.05292 0.0140514 0)
(1.10118 0.0190605 0)
(1.10321 0.024476 0)
(1.09854 0.0308583 0)
(1.09172 0.0374714 0)
(1.08254 0.0435322 0)
(1.07076 0.048049 0)
(1.05648 0.0496335 0)
(1.04244 0.0471951 0)
(1.03156 0.0420335 0)
(1.02379 0.0358771 0)
(1.01839 0.0297085 0)
(1.01465 0.0240579 0)
(1.01016 0.0189938 0)
(0.981346 0.0140269 0)
(0.83974 0.00863774 0)
(0.511064 0.00338012 0)
(0.0987601 0.000235057 0)
(0.163676 0.000533142 0)
(0.868741 0.0108551 0)
(1.07037 0.0188842 0)
(1.11538 0.0252479 0)
(1.11595 0.0323611 0)
(1.10959 0.0405098 0)
(1.10058 0.0487216 0)
(1.08862 0.0559637 0)
(1.07358 0.061004 0)
(1.05573 0.0622642 0)
(1.03842 0.0586864 0)
(1.02507 0.052041 0)
(1.01553 0.0443669 0)
(1.00884 0.036762 0)
(1.00419 0.0298194 0)
(0.998947 0.023625 0)
(0.968444 0.0175593 0)
(0.823158 0.0108627 0)
(0.494077 0.00420939 0)
(0.0929368 0.000287198 0)
(0.177306 0.000809258 0)
(0.899327 0.0155099 0)
(1.09316 0.0259867 0)
(1.1339 0.0341695 0)
(1.13218 0.0435001 0)
(1.12332 0.0537838 0)
(1.11117 0.0636956 0)
(1.09551 0.0719866 0)
(1.07639 0.0772691 0)
(1.05426 0.0778097 0)
(1.03319 0.0726926 0)
(1.01702 0.0642329 0)
(1.00541 0.0547607 0)
(0.997194 0.0454605 0)
(0.991401 0.0369856 0)
(0.985155 0.0294369 0)
(0.952487 0.0220387 0)
(0.802716 0.0136988 0)
(0.473387 0.00525327 0)
(0.0859141 0.000342044 0)
(0.197072 0.00129738 0)
(0.94069 0.0231053 0)
(1.12353 0.0369372 0)
(1.15818 0.0475802 0)
(1.15254 0.0596652 0)
(1.13974 0.0723031 0)
(1.12314 0.08376 0)
(1.10271 0.0926713 0)
(1.07865 0.0975671 0)
(1.05161 0.0967189 0)
(1.02635 0.0895274 0)
(1.00707 0.078899 0)
(0.993143 0.0673818 0)
(0.983136 0.0561728 0)
(0.97592 0.0459447 0)
(0.968314 0.0368189 0)
(0.932721 0.0278528 0)
(0.77742 0.0174381 0)
(0.448073 0.00664253 0)
(0.077455 0.000411127 0)
(0.226497 0.00241187 0)
(0.998673 0.0367753 0)
(1.16365 0.0554734 0)
(1.18928 0.0691374 0)
(1.17723 0.0840923 0)
(1.15847 0.0985367 0)
(1.13586 0.110618 0)
(1.10951 0.11909 0)
(1.07974 0.122542 0)
(1.04731 0.119363 0)
(1.01757 0.109438 0)
(0.994979 0.0962807 0)
(0.978523 0.0825417 0)
(0.966462 0.0693366 0)
(0.957483 0.0572713 0)
(0.94797 0.0464587 0)
(0.908164 0.0356874 0)
(0.746 0.0225773 0)
(0.417637 0.00858068 0)
(0.067782 0.000457367 0)
(0.267361 0.00927048 -1.75485e-20)
(1.07641 0.0648522 -1.38436e-20)
(1.21209 0.0876341 4.04963e-21)
(1.22466 0.10463 0)
(1.20385 0.120715 3.03341e-35)
(1.17757 0.134904 -2.66672e-22)
(1.14785 0.145847 -5.86796e-22)
(1.11483 0.152475 0)
(1.07885 0.153485 3.56841e-35)
(1.04054 0.147298 -2.96164e-21)
(1.00582 0.134296 0)
(0.979393 0.118532 -4.50193e-21)
(0.959822 0.102639 -1.39132e-20)
(0.945042 0.087628 -6.77793e-21)
(0.933496 0.0741167 -2.15886e-21)
(0.921015 0.0620593 -1.31378e-21)
(0.876671 0.0498404 0)
(0.705247 0.0330116 9.49259e-22)
(0.380599 0.0147489 1.1266e-21)
(0.0587845 0.00191598 1.99321e-20)
(0.293183 0.0260304 -2.87384e-20)
(1.13832 0.110714 5.07862e-22)
(1.2547 0.136129 -1.75815e-21)
(1.25657 0.15361 0)
(1.22768 0.168115 3.68601e-21)
(1.19402 0.18045 2.82968e-21)
(1.15731 0.189437 -8.34874e-23)
(1.11756 0.193913 -3.83638e-21)
(1.07502 0.192536 0)
(1.03011 0.183664 1.25174e-20)
(0.989284 0.168062 1.43471e-20)
(0.957678 0.150235 4.71829e-21)
(0.933644 0.132791 1.90534e-20)
(0.914837 0.116536 2.84397e-20)
(0.899434 0.102029 0)
(0.882403 0.0892662 4.28346e-20)
(0.833034 0.0758794 6.29848e-20)
(0.662138 0.0551909 7.04081e-20)
(0.354897 0.0291572 -8.19159e-20)
(0.0548596 0.00472547 -1.49315e-21)
(0.288432 0.0421473 0)
(1.1736 0.169482 -8.40837e-21)
(1.28681 0.197673 0)
(1.28148 0.212477 1.44962e-20)
(1.24627 0.223415 0)
(1.20629 0.232279 9.51265e-21)
(1.16331 0.237983 -6.93648e-22)
(1.1174 0.2393 -4.10505e-21)
(1.06879 0.234804 -1.54352e-21)
(1.0178 0.222894 5.90681e-21)
(0.971417 0.20473 3.39773e-20)
(0.93527 0.185228 -2.75307e-22)
(0.90743 0.166908 -1.44194e-20)
(0.88527 0.150395 -2.84156e-20)
(0.866864 0.136001 3.46869e-20)
(0.847479 0.123533 -6.25399e-20)
(0.799883 0.11005 -8.63747e-21)
(0.646914 0.0852853 0)
(0.364172 0.0487802 1.77504e-22)
(0.0623121 0.00890106 0)
(0.278406 0.0560191 -2.04816e-19)
(1.18966 0.231241 8.47891e-20)
(1.30706 0.263822 4.59405e-20)
(1.29772 0.275965 -9.18446e-21)
(1.2581 0.282995 1.41521e-20)
(1.21344 0.287795 -2.20242e-20)
(1.16548 0.289648 -2.42601e-21)
(1.11442 0.287256 0)
(1.06057 0.279221 -2.06531e-20)
(1.00428 0.26393 0)
(0.953169 0.243139 -1.71454e-20)
(0.913334 0.222086 -2.50321e-20)
(0.882659 0.203113 -1.62455e-20)
(0.858312 0.186576 -2.12657e-20)
(0.838288 0.172541 0)
(0.81827 0.160721 0)
(0.774836 0.147542 -5.82521e-20)
(0.638898 0.119654 1.16653e-20)
(0.372623 0.0712096 -6.79938e-21)
(0.0683598 0.0135048 -7.96559e-21)
(0.268641 0.0683991 1.49091e-19)
(1.19356 0.292326 0)
(1.31789 0.330653 -1.26863e-19)
(1.30634 0.340593 -3.37475e-20)
(1.26369 0.343836 -2.71575e-20)
(1.21561 0.344658 0)
(1.16379 0.342623 -6.21616e-21)
(1.10858 0.336433 2.27561e-21)
(1.05038 0.324674 8.15422e-21)
(0.989646 0.305842 3.04987e-20)
(0.934681 0.282225 0)
(0.892129 0.259398 -5.4564e-20)
(0.859645 0.239514 -3.54341e-20)
(0.834125 0.222699 -2.14574e-20)
(0.81342 0.208819 1.42747e-19)
(0.79367 0.197338 1.76119e-20)
(0.754243 0.18396 8.44789e-20)
(0.629591 0.152352 -4.09795e-19)
(0.37401 0.0918065 2.43748e-19)
(0.0706527 0.0176273 -2.94924e-19)
(0.260174 0.0794958 1.55879e-19)
(1.18977 0.350742 -2.91241e-20)
(1.32167 0.396293 2.19972e-20)
(1.30885 0.404463 6.07795e-20)
(1.26408 0.404183 3.85796e-20)
(1.21342 0.401299 1.64159e-21)
(1.15866 0.395527 6.14224e-21)
(1.10011 0.385646 -3.1526e-22)
(1.03829 0.370233 -1.80844e-20)
(0.973891 0.347786 0)
(0.915748 0.321088 -2.30783e-20)
(0.871014 0.296188 -1.48748e-21)
(0.837211 0.275047 -3.98456e-20)
(0.811002 0.257571 0)
(0.790135 0.243347 -3.11758e-20)
(0.771038 0.231617 -7.61344e-20)
(0.734828 0.217452 2.11808e-19)
(0.617532 0.181668 -2.11646e-19)
(0.369836 0.10964 3.01133e-19)
(0.0705685 0.0210721 -3.13977e-19)
(0.253341 0.089762 -4.35857e-22)
(1.18136 0.406004 3.52242e-20)
(1.32026 0.459611 1.04185e-19)
(1.30682 0.46647 -3.67174e-20)
(1.26048 0.463035 2.18489e-20)
(1.20785 0.456771 0)
(1.15072 0.447533 1.24896e-20)
(1.08943 0.434146 2.22697e-21)
(1.02452 0.415206 -7.43172e-21)
(0.956827 0.389149 0)
(0.895953 0.359219 -2.21331e-20)
(0.849527 0.331924 -3.21791e-20)
(0.814869 0.3091 4.36665e-20)
(0.788385 0.290449 -2.82904e-20)
(0.767652 0.275406 -1.3755e-19)
(0.749243 0.262964 8.502e-20)
(0.7153 0.247654 2.71174e-20)
(0.602809 0.207367 0)
(0.361828 0.124782 -2.92807e-19)
(0.0690891 0.0238906 -1.07607e-20)
(0.247982 0.0995116 2.52469e-20)
(1.1703 0.457987 -4.02686e-20)
(1.31505 0.520025 -5.68035e-20)
(1.30129 0.525982 -1.1346e-19)
(1.25377 0.519804 1.0438e-19)
(1.19961 0.510523 -5.91174e-20)
(1.14058 0.49811 -2.64953e-20)
(1.077 0.481466 4.43934e-21)
(1.00942 0.459172 9.85763e-21)
(0.938826 0.429582 -7.41171e-20)
(0.875663 0.396334 -2.78568e-20)
(0.827807 0.366367 0)
(0.792447 0.341444 4.78488e-20)
(0.765782 0.321184 5.96044e-20)
(0.745255 0.304928 7.3839e-20)
(0.727473 0.291463 -9.28878e-20)
(0.695039 0.274493 -2.80499e-20)
(0.585909 0.229733 3.33256e-20)
(0.351078 0.137274 0)
(0.0666962 0.0260714 -2.34806e-20)
(0.243858 0.108888 -2.91116e-19)
(1.15798 0.506836 1.8366e-19)
(1.30709 0.577297 6.22782e-20)
(1.29319 0.582709 -8.6021e-20)
(1.24481 0.574138 6.1643e-20)
(1.18945 0.562195 -3.84679e-21)
(1.12887 0.546951 2.67643e-20)
(1.06336 0.527336 1.03955e-21)
(0.993507 0.501903 -1.36967e-20)
(0.920295 0.468897 1.49978e-22)
(0.854808 0.432279 -8.1964e-20)
(0.805557 0.399404 8.30612e-20)
(0.769519 0.372058 -5.38946e-20)
(0.742738 0.349824 6.75726e-20)
(0.722488 0.331991 0)
(0.705295 0.317199 -5.05087e-20)
(0.673891 0.29828 -1.30715e-21)
(0.567276 0.248862 -1.45961e-19)
(0.338326 0.147548 -2.15971e-20)
(0.063556 0.0276131 0)
(0.240747 0.117982 0)
(1.1451 0.552838 1.98735e-19)
(1.29714 0.631399 1.44272e-19)
(1.28326 0.63652 9.65797e-20)
(1.23418 0.625868 6.01317e-20)
(1.17788 0.611573 0)
(1.11603 0.593815 2.18619e-20)
(1.04888 0.57154 -1.2255e-21)
(0.976935 0.543247 2.86942e-20)
(0.901259 0.507042 -8.6635e-21)
(0.833426 0.467036 -6.03561e-20)
(0.782745 0.431034 4.12112e-20)
(0.745984 0.401017 -1.94149e-21)
(0.719041 0.376534 7.10896e-20)
(0.699075 0.356811 4.69941e-20)
(0.682464 0.340396 -1.10217e-19)
(0.651771 0.319214 1.33874e-19)
(0.547058 0.265036 4.01035e-20)
(0.323838 0.15553 1.65979e-19)
(0.0598032 0.0285086 -4.44355e-19)
(0.2385 0.126928 -7.4023e-20)
(1.13222 0.59615 1.14111e-19)
(1.28585 0.68253 -8.89388e-20)
(1.27201 0.687403 -1.11253e-19)
(1.2224 0.67491 0)
(1.16535 0.658538 4.89393e-20)
(1.10246 0.638569 -6.4723e-20)
(1.03385 0.613954 -7.79261e-21)
(0.959978 0.58311 0)
(0.881909 0.543973 -1.38326e-19)
(0.811728 0.500664 1.64947e-19)
(0.759414 0.461363 0)
(0.721819 0.428417 6.40985e-20)
(0.694627 0.401428 -1.96588e-21)
(0.674929 0.379533 -1.487e-19)
(0.658798 0.361185 5.85074e-20)
(0.628528 0.337458 0)
(0.525315 0.278292 2.17676e-19)
(0.307692 0.161176 0)
(0.0554965 0.0287559 -2.12238e-19)
(0.236926 0.135729 8.22661e-20)
(1.11965 0.636994 1.29836e-19)
(1.2738 0.730572 -9.3285e-20)
(1.25991 0.735386 0)
(1.20989 0.72127 8.10466e-20)
(1.15225 0.703067 0)
(1.08848 0.681167 8.13237e-20)
(1.01861 0.654517 1.14503e-20)
(0.942987 0.621472 1.18552e-21)
(0.862531 0.579693 -6.8258e-20)
(0.789825 0.533248 1.57292e-20)
(0.735585 0.490655 0)
(0.697016 0.454525 -1.36373e-19)
(0.669499 0.424708 2.04441e-21)
(0.649927 0.400408 0)
(0.63405 0.379807 2.43753e-21)
(0.60391 0.353141 1.97879e-19)
(0.501796 0.288568 -1.91285e-19)
(0.289834 0.164424 5.64951e-20)
(0.0506518 0.0283223 0)
(0.23566 0.144274 0)
(1.10746 0.675581 1.44721e-19)
(1.26137 0.775638 1.08695e-19)
(1.24726 0.780522 -2.16789e-21)
(1.19695 0.764963 4.99382e-20)
(1.13886 0.745165 1.15019e-19)
(1.07438 0.721599 -2.67887e-20)
(1.00342 0.693211 7.32098e-21)
(0.926157 0.658297 1.31885e-20)
(0.843307 0.614267 -1.05237e-19)
(0.767825 0.564986 -3.07231e-21)
(0.711257 0.5192 -5.48925e-20)
(0.671303 0.479732 2.24218e-19)
(0.643274 0.446765 -2.46315e-21)
(0.623674 0.419656 -1.17949e-19)
(0.607986 0.396505 -2.16321e-19)
(0.577783 0.36639 0)
(0.476429 0.295882 0)
(0.270206 0.165132 6.23235e-20)
(0.0453306 0.0271449 -3.64341e-20)
(0.234928 0.152653 1.01638e-19)
(1.09578 0.711904 -3.15865e-19)
(1.24869 0.817934 -1.16318e-19)
(1.23435 0.822901 0)
(1.18387 0.806051 -1.489e-21)
(1.12545 0.784868 1.36126e-19)
(1.0604 0.759876 -8.56884e-20)
(0.988474 0.730026 -5.10117e-20)
(0.909675 0.693574 8.45694e-21)
(0.824452 0.647676 -7.9009e-20)
(0.745986 0.595911 -1.38912e-19)
(0.686639 0.547075 1.46284e-19)
(0.644591 0.50413 0)
(0.615709 0.467635 -5.30531e-20)
(0.596091 0.437383 -1.29995e-19)
(0.580556 0.411245 -1.57286e-19)
(0.550023 0.377187 -1.91741e-19)
(0.44897 0.300109 5.75375e-20)
(0.248659 0.162917 -3.37481e-20)
(0.0395333 0.0251985 4.59036e-22)
(0.234261 0.160765 0)
(1.085 0.745865 0)
(1.23595 0.857568 2.41591e-21)
(1.2214 0.862596 0)
(1.17082 0.84462 -1.85948e-19)
(1.11218 0.822233 -1.18894e-19)
(1.04669 0.796024 0)
(0.973946 0.76498 -1.02233e-20)
(0.893741 0.727317 2.55068e-22)
(0.806175 0.679984 -1.81265e-19)
(0.724529 0.626144 0)
(0.66206 0.57446 -9.36284e-20)
(0.61737 0.527948 -3.0219e-21)
(0.587026 0.487648 -2.50074e-21)
(0.567056 0.453876 1.39005e-19)
(0.551553 0.424287 -3.91335e-22)
(0.520312 0.38557 -4.17884e-19)
(0.418789 0.301046 1.25941e-19)
(0.225144 0.157806 3.74366e-20)
(0.0332819 0.0224741 0)
(0.233615 0.16859 -3.71852e-19)
(1.07467 0.777968 -1.93143e-19)
(1.2233 0.89465 -2.89303e-19)
(1.20856 0.899714 4.07014e-19)
(1.15796 0.880744 -3.46943e-19)
(1.0992 0.857327 0)
(1.0334 0.830094 -7.02058e-20)
(0.95997 0.798095 1.99142e-20)
(0.878487 0.759536 3.66388e-21)
(0.788628 0.711191 1.47256e-20)
(0.703649 0.655803 1.7237e-19)
(0.637626 0.60166 -3.18132e-20)
(0.589892 0.551795 -1.38628e-19)
(0.557286 0.50751 -6.34035e-20)
(0.536502 0.469508 7.78219e-20)
(0.520773 0.435816 -3.32327e-22)
(0.488494 0.391462 1.15259e-19)
(0.385955 0.298414 -2.73922e-19)
(0.199147 0.149205 3.27095e-19)
(0.0266389 0.0190477 4.73086e-20)
(0.232839 0.176058 1.36215e-19)
(1.06478 0.80824 -1.05406e-19)
(1.21088 0.929295 5.82194e-21)
(1.19594 0.934388 2.28869e-19)
(1.1454 0.914538 8.04377e-20)
(1.08661 0.890228 2.36036e-19)
(1.02062 0.86214 -3.0074e-20)
(0.946642 0.829397 9.23818e-20)
(0.864021 0.790231 2.35398e-20)
(0.771965 0.741293 -9.47512e-20)
(0.683573 0.684887 0)
(0.61359 0.628797 -1.44014e-19)
(0.562169 0.575844 2.01656e-19)
(0.526496 0.52745 0)
(0.504152 0.484688 -1.66691e-19)
(0.487841 0.44567 1.04104e-19)
(0.454264 0.394438 -1.24857e-19)
(0.350566 0.291788 -1.50948e-19)
(0.171573 0.137411 -2.67259e-19)
(0.0198383 0.0149951 -2.08592e-19)
(0.23221 0.183252 -1.49394e-19)
(1.05518 0.836692 1.12694e-19)
(1.19876 0.961612 2.68064e-19)
(1.18365 0.966723 3.13887e-19)
(1.13322 0.946102 -1.68612e-19)
(1.07449 0.921022 1.61468e-19)
(1.00841 0.892216 -9.39703e-20)
(0.93403 0.85893 1.09998e-19)
(0.850418 0.819422 2.05865e-20)
(0.756309 0.770287 8.60169e-20)
(0.664463 0.713428 3.62162e-19)
(0.590239 0.65597 0)
(0.53435 0.600432 0)
(0.494575 0.547976 -7.34287e-20)
(0.469627 0.499772 0)
(0.452075 0.454014 2.27435e-19)
(0.417018 0.393583 2.7416e-19)
(0.312829 0.280101 0)
(0.143489 0.122411 0)
(0.0134208 0.0107057 2.28225e-19)
(0.231329 0.189906 1.64331e-19)
(1.04589 0.86335 1.3397e-19)
(1.18699 0.99174 1.92424e-19)
(1.17173 0.996859 -2.7911e-19)
(1.12148 0.975544 -1.8722e-19)
(1.06288 0.94979 -2.12653e-19)
(0.99683 0.920391 1.38524e-19)
(0.922172 0.886727 4.56082e-22)
(0.837732 0.84711 -4.69162e-21)
(0.741728 0.798148 -6.06566e-21)
(0.646532 0.741399 1.82448e-19)
(0.567841 0.683226 0)
(0.506973 0.625719 2.03411e-19)
(0.461812 0.569777 1.54375e-19)
(0.432541 0.515961 3.9866e-19)
(0.412202 0.460905 1.22732e-19)
(0.37532 0.387227 -1.52523e-19)
(0.273561 0.260756 -8.98837e-20)
(0.118356 0.103857 0)
(0.00881176 0.00685483 2.49212e-19)
(0.230648 0.196436 -3.60542e-19)
(1.03689 0.888337 0)
(1.17557 1.01977 2.1417e-19)
(1.16021 1.02489 -2.28125e-19)
(1.11022 1.00297 2.10751e-19)
(1.05181 0.976625 3.08528e-19)
(0.985898 0.946729 -3.17398e-19)
(0.911086 0.91283 4.79726e-21)
(0.825978 0.873302 0)
(0.728283 0.824829 -7.1491e-20)
(0.629891 0.768732 -3.72034e-19)
(0.546674 0.710533 1.91972e-20)
(0.480457 0.651906 2.75302e-19)
(0.42879 0.593426 0)
(0.392825 0.534316 2.68724e-19)
(0.366464 0.467978 0)
(0.324921 0.373726 0)
(0.231661 0.225997 -1.0088e-19)
(0.107885 0.0724214 0)
(0.0259005 0.0119287 6.7515e-20)
(0.229654 0.202328 -3.93158e-19)
(1.02814 0.911989 0)
(1.16449 1.04592 3.46105e-19)
(1.14908 1.05105 0)
(1.09939 1.02862 -1.13896e-19)
(1.04123 1.0018 0)
(0.975542 0.97153 -2.32545e-20)
(0.90067 0.937563 -1.8348e-20)
(0.815044 0.898343 -3.80707e-21)
(0.715835 0.850696 -6.35774e-20)
(0.614431 0.795814 9.26351e-21)
(0.526678 0.738419 1.59711e-19)
(0.454763 0.679351 2.65944e-19)
(0.395469 0.619828 3.84996e-20)
(0.349812 0.557512 2.09788e-19)
(0.312179 0.478961 0)
(0.254495 0.355609 3.34998e-19)
(0.164928 0.161945 -2.00171e-19)
(0.0641508 0.0703286 2.30602e-19)
(-0.0651065 0.385261 -2.70198e-19)
(0.228657 0.207949 3.20003e-19)
(1.01945 0.934163 5.06414e-19)
(1.15367 1.07049 0)
(1.1382 1.07574 4.61171e-21)
(1.08884 1.05304 3.08441e-19)
(1.0309 1.02595 -5.92257e-19)
(0.965499 0.995537 -1.38092e-19)
(0.890587 0.961805 0)
(0.804493 0.923263 -4.94365e-20)
(0.703848 0.876997 -5.45594e-22)
(0.599414 0.82409 0)
(0.506904 0.768592 0)
(0.428779 0.71011 2.31772e-19)
(0.361255 0.650902 -1.20283e-19)
(0.302358 0.5895 -2.07965e-19)
(0.246175 0.502413 0)
(0.143334 0.344964 1.7003e-19)
(0.0331663 0.448143 -2.02172e-19)
(0.0477851 1.7381 -1.04294e-19)
(0.0844526 2.73462 -1.35136e-19)
(0.227546 0.212717 -2.33664e-19)
(1.01107 0.955011 -6.3774e-19)
(1.1431 1.09348 1.98826e-19)
(1.12757 1.09882 1.92155e-19)
(1.07861 1.07602 0)
(1.02085 1.04881 -4.22707e-19)
(0.955927 1.01846 -2.29229e-19)
(0.880986 0.985148 1.16755e-20)
(0.794539 0.947559 -6.9219e-21)
(0.692628 0.903104 3.60768e-20)
(0.585361 0.852815 1.57159e-19)
(0.488254 0.800356 1.59519e-19)
(0.403765 0.743527 2.25506e-19)
(0.328566 0.684879 -2.72133e-19)
(0.256771 0.631314 -3.05336e-19)
(0.176462 0.545246 0)
(0.080684 0.80852 0)
(0.138358 2.43498 8.76122e-20)
(0.144517 3.15272 0)
(0.145738 3.36844 1.9876e-19)
(0.228716 0.217431 0)
(1.00348 0.974604 0)
(1.13257 1.11476 0)
(1.11698 1.12008 5.32914e-20)
(1.0684 1.09736 2.74745e-19)
(1.01088 1.07025 -3.21074e-19)
(0.94672 1.0402 -1.6343e-19)
(0.871819 1.0075 1.30369e-20)
(0.785149 0.971104 -9.62318e-20)
(0.682194 0.928867 -1.02061e-20)
(0.572398 0.881838 2.71486e-19)
(0.471021 0.833383 -1.87906e-20)
(0.380228 0.780075 2.47874e-20)
(0.298607 0.719291 3.85702e-20)
(0.22039 0.678648 1.12168e-21)
(0.143564 0.914473 1.59961e-21)
(0.186202 2.55354 -4.24359e-19)
(0.21195 3.26109 -1.60193e-19)
(0.193462 3.42316 7.25859e-20)
(0.173355 3.45132 -7.28241e-20)
(0.146153 0.175059 1.32957e-19)
(0.989008 0.995964 0)
(1.1219 1.1345 -3.88811e-19)
(1.10724 1.14021 -4.96066e-19)
(1.05892 1.11783 5.69689e-19)
(1.00186 1.09091 3.40424e-19)
(0.937783 1.06087 1.9016e-19)
(0.863167 1.02897 -2.15331e-19)
(0.776468 0.99403 9.69451e-20)
(0.672893 0.954265 0)
(0.56112 0.910968 1.08457e-19)
(0.456033 0.867092 -1.15006e-19)
(0.359157 0.820757 0)
(0.272213 0.75863 3.31845e-20)
(0.207859 0.85385 7.97667e-20)
(0.188179 2.17401 -9.98165e-20)
(0.284942 3.29607 1.1062e-19)
(0.261874 3.44548 5.08718e-20)
(0.219292 3.47395 5.77785e-20)
(0.190325 3.48692 6.30892e-20)
(0.268704 0.25066 -2.47395e-19)
(0.970588 1.00045 0)
(1.10177 1.1555 3.95658e-19)
(1.09347 1.16988 5.11332e-19)
(1.04369 1.14748 -5.84184e-19)
(0.986742 1.12112 -3.59556e-19)
(0.922594 1.09252 -2.8964e-19)
(0.848146 1.06196 -1.60346e-20)
(0.761096 1.02948 -1.29829e-19)
(0.656081 0.99417 -4.34924e-20)
(0.540948 0.958137 2.99598e-21)
(0.430592 0.923527 8.26304e-20)
(0.324045 0.89218 1.91676e-20)
(0.248309 0.986019 -2.84524e-20)
(0.28838 2.09131 -6.73592e-20)
(0.36695 3.29133 3.98781e-20)
(0.356268 3.48727 -2.9112e-20)
(0.312698 3.51551 -1.56539e-20)
(0.267762 3.54853 2.32437e-20)
(0.203282 3.53972 1.35312e-21)
(0.254794 0.245906 0)
(0.965933 1.01919 1.03675e-19)
(1.09329 1.1761 -7.82563e-20)
(1.08347 1.1904 -5.68673e-20)
(1.03422 1.16812 -3.82955e-19)
(0.977665 1.14197 3.50664e-19)
(0.913628 1.11357 1.9412e-19)
(0.839635 1.08389 -1.66473e-20)
(0.752957 1.05309 1.57066e-19)
(0.647945 1.02096 -1.40695e-20)
(0.531891 0.990159 -1.00748e-19)
(0.419785 0.962818 1.16401e-20)
(0.315603 0.952483 -1.59131e-20)
(0.296865 1.36133 -2.24558e-20)
(0.404962 2.93825 1.89799e-20)
(0.45048 3.47107 7.04738e-22)
(0.397974 3.55936 -8.24592e-20)
(0.353743 3.58841 -8.28972e-20)
(0.293315 3.61631 1.02331e-19)
(0.219995 3.60999 4.67627e-20)
(0.237184 0.242698 2.53737e-19)
(0.959213 1.04032 6.96501e-19)
(1.08406 1.19824 -2.2328e-19)
(1.07304 1.21219 -2.1586e-19)
(1.02427 1.18977 0)
(0.968181 1.16365 5.10481e-19)
(0.904588 1.13551 2.94677e-19)
(0.831358 1.10669 -1.73324e-20)
(0.7454 1.07758 1.64692e-20)
(0.640904 1.04876 1.11754e-19)
(0.524677 1.02335 -1.0362e-20)
(0.412477 1.00405 -7.03992e-20)
(0.322598 1.04686 -9.68854e-20)
(0.380169 1.91108 1.0889e-19)
(0.509417 3.32547 2.87332e-20)
(0.51435 3.55188 0)
(0.450351 3.60981 0)
(0.405425 3.66849 9.62314e-20)
(0.321617 3.73989 0)
(0.233575 3.70752 2.02496e-19)
(0.224754 0.242353 -3.69485e-19)
(0.950659 1.06225 -5.78587e-19)
(1.0733 1.22119 0)
(1.0614 1.23456 5.18624e-21)
(1.01316 1.21175 -3.70955e-19)
(0.957682 1.18552 7.56366e-19)
(0.894889 1.15765 1.97306e-19)
(0.82266 1.12957 -2.09205e-20)
(0.737708 1.10207 1.67407e-19)
(0.634189 1.07651 -9.91224e-21)
(0.518631 1.05664 0)
(0.408434 1.04639 0)
(0.350515 1.20736 -6.0326e-20)
(0.486569 2.53726 1.42777e-20)
(0.605486 3.48137 -3.73149e-20)
(0.572446 3.59972 0)
(0.525147 3.66691 2.15584e-19)
(0.465401 3.76185 -3.29986e-19)
(0.411279 3.78075 -2.92435e-19)