/*--------------------------------*- C++ -*----------------------------------*\
  =========                 |
  \\      /  F ield         | OpenFOAM: The Open Source CFD Toolbox
   \\    /   O peration     | Website:  https://openfoam.org
    \\  /    A nd           | Version:  9
     \\/     M anipulation  |
\*---------------------------------------------------------------------------*/
FoamFile
{
    format      ascii;
    class       volScalarField;
    location    "36";
    object      p;
}
// * * * * * * * * * * * * * * * * * * * * * * * * * * * * * * * * * * * * * //

dimensions      [0 2 -2 0 0 0 0];

internalField   nonuniform List<scalar> 
8800
(
0.941902
0.894113
0.855419
0.826417
0.805543
0.790695
0.780074
0.772564
0.767702
0.765588
0.766782
0.770914
0.777511
0.786789
0.799541
0.817257
0.842022
0.875954
0.918496
0.977197
0.773164
0.780842
0.788305
0.791609
0.790097
0.785007
0.778504
0.772402
0.767641
0.764743
0.764396
0.766829
0.771258
0.777159
0.783896
0.790151
0.793774
0.793028
0.787596
0.778899
0.751586
0.757745
0.761867
0.764801
0.766838
0.767425
0.766294
0.764156
0.762092
0.761114
0.762
0.764311
0.767053
0.76919
0.769763
0.768538
0.766176
0.762769
0.758204
0.754441
0.745815
0.748463
0.751208
0.753602
0.755223
0.756364
0.757076
0.757154
0.756804
0.756679
0.757344
0.758435
0.759208
0.75922
0.758569
0.757445
0.755604
0.753014
0.7506
0.749096
0.740485
0.741909
0.743681
0.745703
0.747471
0.74879
0.749748
0.7505
0.751052
0.751529
0.752078
0.752479
0.752498
0.752145
0.751395
0.750104
0.748373
0.746499
0.745178
0.744347
0.735477
0.736396
0.737632
0.739188
0.740804
0.742305
0.743556
0.744571
0.745462
0.746252
0.746819
0.747031
0.74689
0.746367
0.745418
0.744161
0.742787
0.741492
0.740654
0.740104
0.730657
0.731325
0.732283
0.733577
0.73497
0.736404
0.737808
0.739074
0.740189
0.741174
0.741847
0.74207
0.741858
0.741239
0.740341
0.739317
0.738242
0.737272
0.736669
0.736266
0.725984
0.726499
0.727279
0.728403
0.729666
0.731016
0.732423
0.733835
0.735168
0.736358
0.737183
0.737471
0.73728
0.736751
0.736028
0.735202
0.734343
0.733601
0.733147
0.732834
0.721394
0.721803
0.722457
0.723459
0.724652
0.725954
0.727356
0.728842
0.730354
0.73178
0.732802
0.733227
0.73318
0.732828
0.73229
0.731643
0.730962
0.730395
0.730048
0.729797
0.716808
0.717139
0.717705
0.718633
0.719779
0.721064
0.722491
0.724054
0.725719
0.727391
0.728675
0.729343
0.729525
0.729379
0.729027
0.728562
0.728039
0.727614
0.727349
0.727142
0.712155
0.712427
0.712933
0.713818
0.71495
0.716257
0.717748
0.719428
0.721285
0.723239
0.724859
0.72584
0.726293
0.726376
0.72622
0.725929
0.725557
0.725251
0.725051
0.724877
0.70736
0.707583
0.708051
0.708926
0.710083
0.711459
0.713058
0.714916
0.717032
0.719338
0.721375
0.722733
0.723491
0.723825
0.723878
0.723755
0.723528
0.723323
0.723176
0.723028
0.702352
0.702536
0.702983
0.703876
0.705101
0.706585
0.708345
0.710442
0.712902
0.715671
0.71821
0.720004
0.721115
0.721736
0.722021
0.722072
0.721988
0.721877
0.721777
0.721648
0.697061
0.697213
0.697655
0.69859
0.699918
0.701551
0.703518
0.705915
0.708793
0.712131
0.715295
0.717631
0.719182
0.720151
0.720706
0.720958
0.721011
0.72099
0.720933
0.72082
0.691401
0.691523
0.691969
0.692967
0.694431
0.696264
0.698518
0.701301
0.704697
0.708729
0.712662
0.715673
0.717759
0.719125
0.719976
0.720475
0.720697
0.720772
0.720754
0.720652
0.685255
0.685341
0.685807
0.6869
0.688554
0.690654
0.693276
0.696573
0.700666
0.705584
0.710453
0.71425
0.716937
0.718774
0.719987
0.720734
0.721145
0.721323
0.721347
0.721256
0.678497
0.678569
0.679049
0.680244
0.682113
0.68453
0.687601
0.691506
0.696423
0.702423
0.708442
0.713224
0.716703
0.719148
0.720807
0.72189
0.722528
0.722825
0.72289
0.722805
0.670868
0.670925
0.671462
0.672776
0.674917
0.677744
0.681394
0.686096
0.692067
0.699403
0.706839
0.712805
0.71718
0.72033
0.722577
0.724085
0.725009
0.725447
0.725555
0.725472
0.662121
0.662154
0.662754
0.66425
0.666736
0.670092
0.674482
0.680201
0.687515
0.69653
0.705665
0.713034
0.718508
0.722515
0.725447
0.727454
0.728728
0.729336
0.729487
0.729398
0.651795
0.651817
0.652501
0.654236
0.657167
0.661202
0.66654
0.673541
0.682511
0.693569
0.704801
0.713885
0.720684
0.725712
0.729467
0.7321
0.733799
0.734597
0.734784
0.734681
0.639244
0.639267
0.64009
0.64218
0.645754
0.650742
0.657377
0.666094
0.677224
0.69084
0.704549
0.715601
0.72391
0.730118
0.734777
0.738115
0.740271
0.741264
0.741484
0.741359
0.623614
0.623643
0.624688
0.627332
0.631837
0.63815
0.646543
0.657512
0.671369
0.688108
0.704778
0.718151
0.728199
0.735753
0.741452
0.745581
0.748223
0.749408
0.749656
0.749505
0.603739
0.603783
0.605184
0.608706
0.614625
0.622871
0.633746
0.647752
0.665105
0.685637
0.705754
0.721738
0.733736
0.742771
0.749647
0.754621
0.757756
0.759127
0.759397
0.759218
0.577871
0.577951
0.579974
0.584946
0.593132
0.604259
0.618673
0.636731
0.658472
0.68353
0.707581
0.726484
0.740635
0.751333
0.759446
0.765368
0.769015
0.770552
0.770828
0.770617
0.543082
0.543292
0.546583
0.554202
0.566173
0.581765
0.601208
0.624601
0.651741
0.682053
0.71048
0.732537
0.748996
0.761478
0.770988
0.777909
0.782058
0.783712
0.783967
0.783719
0.493661
0.494747
0.501357
0.514377
0.532872
0.555303
0.581671
0.611817
0.645343
0.681545
0.714668
0.74002
0.758875
0.773212
0.784235
0.792195
0.79678
0.798484
0.798679
0.798387
0.420499
0.427989
0.443303
0.466433
0.49461
0.526146
0.560994
0.598958
0.63964
0.682338
0.720635
0.749679
0.771274
0.78782
0.800656
0.809816
0.814996
0.816882
0.817102
0.816861
0.341767
0.359127
0.383871
0.417628
0.455911
0.496768
0.54022
0.586258
0.634589
0.684624
0.729239
0.763126
0.788463
0.808032
0.823322
0.834191
0.840115
0.842167
0.842451
0.842385
0.276519
0.296781
0.329349
0.371951
0.419114
0.468742
0.520518
0.574436
0.630229
0.687329
0.737923
0.776325
0.805118
0.827344
0.844466
0.856365
0.862843
0.865475
0.865794
0.8658
0.223166
0.245147
0.283041
0.331935
0.386115
0.44306
0.502165
0.563296
0.626051
0.689824
0.746002
0.788481
0.820195
0.844448
0.862884
0.875893
0.883539
0.886064
0.886482
0.886547
0.178909
0.201913
0.243402
0.297258
0.35708
0.420054
0.485427
0.552935
0.622027
0.691944
0.753251
0.799345
0.83351
0.859425
0.879073
0.892932
0.901126
0.904026
0.904633
0.904736
0.141298
0.164891
0.209103
0.266791
0.331235
0.399322
0.470141
0.5433
0.618115
0.693667
0.759638
0.808934
0.845197
0.872471
0.893021
0.907541
0.916186
0.919538
0.920294
0.920409
0.108373
0.132356
0.178653
0.239448
0.307738
0.380232
0.455859
0.534106
0.614159
0.694905
0.765168
0.817319
0.855355
0.883707
0.904919
0.919894
0.928847
0.932522
0.933414
0.93353
0.0786303
0.102986
0.150916
0.214316
0.285904
0.362223
0.442144
0.525024
0.609918
0.695534
0.769818
0.824615
0.864231
0.893501
0.91521
0.930523
0.939659
0.943564
0.944494
0.944589
0.0511071
0.0758194
0.125152
0.190756
0.265185
0.344873
0.428649
0.515766
0.605184
0.695426
0.773587
0.830934
0.872062
0.902187
0.924346
0.93988
0.949157
0.953141
0.954098
0.954143
0.0250005
0.0501237
0.100876
0.168286
0.245208
0.327876
0.415126
0.506138
0.599795
0.69448
0.776465
0.836378
0.879048
0.910036
0.932649
0.948374
0.957678
0.961676
0.962707
0.962747
-3.32167e-05
0.0255314
0.0772892
0.146588
0.225693
0.311027
0.401414
0.496006
0.593642
0.692626
0.778446
0.841033
0.885362
0.917306
0.940416
0.956339
0.965675
0.96961
0.970596
0.970617
-0.0243962
0.00173962
0.0544908
0.125406
0.206463
0.294184
0.387412
0.485287
0.586651
0.689798
0.779517
0.844954
0.891124
0.924166
0.947863
0.964028
0.973388
0.977267
0.978122
0.978082
-0.0482024
-0.0215815
0.0322747
0.104614
0.187424
0.277279
0.373068
0.473945
0.578785
0.685959
0.77965
0.848164
0.896413
0.930725
0.955115
0.971553
0.980891
0.984638
0.985383
0.985259
-0.071548
-0.0443548
0.0104923
0.0841458
0.16854
0.260299
0.358378
0.461972
0.570033
0.68107
0.778784
0.850627
0.901246
0.937052
0.962232
0.978938
0.988177
0.991709
0.992302
0.992115
-0.0945132
-0.0666905
-0.0109058
0.063986
0.149798
0.243258
0.343376
0.449408
0.56041
0.6751
0.77684
0.852259
0.90561
0.943197
0.969287
0.986216
0.995244
0.99846
0.998891
0.998658
-0.117089
-0.0885778
-0.0318682
0.044154
0.131242
0.226197
0.328118
0.436306
0.549953
0.668031
0.773741
0.85296
0.909444
0.949207
0.97639
0.993441
1.00205
1.00483
1.00508
1.00481
-0.139104
-0.109944
-0.0523506
0.0246924
0.112917
0.209188
0.31267
0.422747
0.53873
0.659895
0.769425
0.852599
0.912611
0.955085
0.98372
1.0008
1.00863
1.01073
1.01077
1.01048
-0.16052
-0.130747
-0.072324
0.00565856
0.0948854
0.192297
0.29713
0.408819
0.52683
0.650734
0.763848
0.851019
0.914922
0.960744
0.991502
1.00875
1.01527
1.01618
1.01589
1.01565
-0.181398
-0.150941
-0.0917458
-0.0129068
0.0772154
0.17561
0.28159
0.394631
0.514355
0.640624
0.756974
0.848075
0.916112
0.965916
0.999834
1.01807
1.02297
1.02166
1.02047
1.02047
-0.201553
-0.170493
-0.110551
-0.0309336
0.0599686
0.15921
0.266146
0.380299
0.501429
0.629673
0.748817
0.843631
0.915874
0.970086
1.00836
1.02943
1.03389
1.02964
1.02587
1.02504
-0.221075
-0.189389
-0.128753
-0.0484461
0.0431131
0.143051
0.25074
0.365761
0.487982
0.617808
0.739246
0.837419
0.913868
0.972539
1.01601
1.04245
1.05002
1.04567
1.0356
1.01936
-0.239884
-0.207616
-0.146468
-0.0656361
0.0263567
0.126796
0.234952
0.350527
0.473462
0.604371
0.727581
0.828593
0.90942
0.972182
1.02031
1.05351
1.0652
1.05494
1.03664
1.02094
-0.2578
-0.225298
-0.163508
-0.0822676
0.0100055
0.110794
0.219009
0.334928
0.458192
0.589651
0.713965
0.816788
0.901958
0.967945
1.01626
1.04925
1.06453
1.04479
0.975163
0.942842
-0.274158
-0.243617
-0.179545
-0.0977509
-0.0052165
0.0955428
0.203211
0.319194
0.442395
0.573785
0.698381
0.801803
0.890353
0.959625
0.999701
1.02483
1.02413
0.973582
0.903207
0.859472
-0.330441
-0.259738
-0.194294
-0.113157
-0.0207873
0.0796238
0.187498
0.303053
0.425717
0.556353
0.680288
0.783223
0.871149
0.947508
0.952884
0.964944
0.926764
0.861332
0.785111
0.742321
-0.291672
-0.275609
-0.215907
-0.134936
-0.0434465
0.0567105
0.163574
0.278307
0.399719
0.528487
0.649748
0.750195
0.829485
0.906887
0.901681
0.796557
0.694594
0.623573
0.550806
0.584651
-0.323088
-0.29362
-0.232963
-0.152642
-0.0610775
0.0387523
0.145799
0.259819
0.380039
0.506794
0.624908
0.721156
0.792687
0.833033
0.788539
0.645751
0.519827
0.429805
0.330845
0.384095
-0.347306
-0.314881
-0.252932
-0.17232
-0.0806695
0.019018
0.12592
0.239028
0.357736
0.481929
0.596128
0.686631
0.748477
0.757185
0.654984
0.483427
0.330488
0.211189
0.0799762
0.114615
-0.371018
-0.337014
-0.273839
-0.192357
-0.10052
-0.000963923
0.105398
0.217474
0.334488
0.455787
0.56528
0.649335
0.695944
0.673487
0.518625
0.322042
0.129857
-0.0430124
-0.23645
-0.250001
-0.394074
-0.359638
-0.295549
-0.213303
-0.121237
-0.021861
0.0838513
0.194793
0.309879
0.427946
0.532185
0.608941
0.638092
0.580971
0.389151
0.177211
-0.0435453
-0.239079
-0.488966
-0.802284
-0.417409
-0.382969
-0.318336
-0.235563
-0.143251
-0.0439975
0.0611443
0.170936
0.284014
0.398639
0.497446
0.565802
0.577091
0.469495
0.276962
0.0654707
-0.142319
-0.318907
-0.386348
-0.475254
-0.441937
-0.407456
-0.342529
-0.259477
-0.167051
-0.0680014
0.0364848
0.144968
0.255737
0.366426
0.459394
0.517661
0.504302
0.362697
0.177953
-0.0138556
-0.178181
-0.271964
-0.296096
-0.312841
-0.46798
-0.433421
-0.368293
-0.285127
-0.192759
-0.0940677
0.00953657
0.116421
0.224481
0.330601
0.417224
0.462666
0.430687
0.263393
0.0883898
-0.0771602
-0.204829
-0.243362
-0.257948
-0.25935
-0.495742
-0.46102
-0.395685
-0.31249
-0.220308
-0.122183
-0.0196951
0.0852729
0.1902
0.291173
0.370626
0.402677
0.35333
0.170442
0.00506145
-0.142571
-0.220928
-0.237635
-0.239516
-0.23958
-0.525265
-0.49026
-0.424717
-0.341546
-0.249693
-0.152313
-0.0511848
0.0515412
0.152925
0.24823
0.319498
0.34021
0.255856
0.0843871
-0.0726776
-0.193763
-0.228073
-0.230224
-0.230784
-0.23033
-0.556253
-0.521061
-0.455263
-0.37219
-0.280801
-0.184371
-0.0848636
0.0152974
0.112723
0.201881
0.264522
0.268308
0.161178
0.00360284
-0.136063
-0.214139
-0.223508
-0.225908
-0.226658
-0.226532
-0.588124
-0.552821
-0.487066
-0.404183
-0.313419
-0.218161
-0.120532
-0.0232678
0.0698317
0.152428
0.206483
0.192279
0.073212
-0.0683379
-0.185572
-0.211433
-0.2234
-0.225468
-0.224851
-0.224558
-0.620436
-0.585047
-0.519647
-0.437116
-0.347168
-0.25332
-0.157854
-0.0637936
0.0246422
0.100562
0.144906
0.117278
-0.0148629
-0.135701
-0.21961
-0.250641
-0.234095
-0.227173
-0.225589
-0.224979
-0.652337
-0.617153
-0.552136
-0.470334
-0.381477
-0.289322
-0.196306
-0.105706
-0.0222465
0.0471534
0.0809757
0.0458724
-0.102304
-0.204942
-0.235999
-0.234646
-0.239186
-0.238994
-0.236367
-0.23477
-0.68225
-0.647968
-0.58366
-0.502933
-0.415544
-0.325406
-0.235144
-0.148199
-0.0698722
-0.00689743
0.0198296
-0.0304439
-0.184647
-0.307032
-0.302266
-0.300818
-0.273958
-0.254787
-0.248114
-0.246154
-0.708741
-0.675328
-0.61314
-0.533789
-0.448317
-0.36057
-0.27339
-0.190263
-0.116829
-0.0604749
-0.0354643
-0.106323
-0.25944
-0.42828
-0.444665
-0.37619
-0.318141
-0.287202
-0.276032
-0.272225
-0.729803
-0.698213
-0.638396
-0.5615
-0.478495
-0.393609
-0.309815
-0.230671
-0.161618
-0.111642
-0.0858979
-0.160509
-0.292568
-0.483588
-0.569985
-0.45673
-0.413536
-0.393758
-0.376849
-0.366644
-0.743452
-0.714481
-0.657933
-0.584267
-0.504546
-0.423111
-0.34302
-0.26794
-0.20287
-0.157745
-0.13012
-0.181426
-0.224384
-0.298621
-0.399678
-0.463805
-0.527503
-0.538536
-0.522534
-0.516619
-0.747228
-0.722161
-0.669944
-0.600421
-0.524778
-0.447508
-0.371482
-0.300427
-0.239349
-0.196523
-0.162923
-0.191449
-0.117004
-0.0269124
-0.178853
-0.391193
-0.5146
-0.542884
-0.554352
-0.558645
-0.73948
-0.719019
-0.672449
-0.608427
-0.53775
-0.465217
-0.393552
-0.32645
-0.269486
-0.228742
-0.198139
-0.267374
-0.250063
0.0235043
-0.0572738
-0.409661
-0.632699
-0.652096
-0.659516
-0.660735
-0.71826
-0.702311
-0.663912
-0.607188
-0.542468
-0.475038
-0.407687
-0.344064
-0.290617
-0.25541
-0.252911
-0.424334
-0.70491
-0.876674
-1.06232
-1.21741
-1.15173
-0.965119
-0.842717
-0.852452
-0.685302
-0.674596
-0.644778
-0.596892
-0.538777
-0.476451
-0.41281
-0.351419
-0.298283
-0.265467
-0.278685
-0.551884
-1.27194
-2.372
-2.95571
-3.13105
-2.84962
-2.35487
-1.94694
-1.76025
-0.645707
-0.639508
-0.618993
-0.579749
-0.528187
-0.469979
-0.40859
-0.347037
-0.290368
-0.250169
-0.266521
-0.485209
-1.02095
-1.60855
-2.02752
-2.13189
-1.96419
-1.68263
-1.41913
-1.28716
-0.606898
-0.603427
-0.591706
-0.560508
-0.513562
-0.457865
-0.396375
-0.331011
-0.266367
-0.205951
-0.169365
-0.168911
-0.134141
0.0643338
0.347319
0.664434
0.933173
1.12158
1.24306
1.29445
-0.575422
-0.573347
-0.567378
-0.54367
-0.500131
-0.443649
-0.379503
-0.307256
-0.228439
-0.141322
-0.041133
0.0943273
0.431866
0.988604
1.60416
2.15427
2.55016
2.77222
2.86145
2.8857
-0.5482
-0.547522
-0.546005
-0.530541
-0.49009
-0.431504
-0.362402
-0.283719
-0.193445
-0.0916361
0.0258517
0.146097
0.444932
0.984123
1.5549
2.05515
2.41319
2.62187
2.71883
2.74693
-0.527072
-0.526819
-0.52681
-0.517892
-0.481907
-0.421596
-0.347613
-0.263995
-0.17055
-0.0648786
0.0413586
0.155988
0.336155
0.797068
1.26968
1.67244
1.97715
2.15614
2.23638
2.25837
-0.508191
-0.50722
-0.507015
-0.50369
-0.473231
-0.411572
-0.334115
-0.248258
-0.156095
-0.0540035
0.0466747
0.149444
0.277778
0.591132
0.966404
1.26925
1.4928
1.62202
1.68166
1.69819
-0.498431
-0.497332
-0.498147
-0.496321
-0.465269
-0.399014
-0.317968
-0.231835
-0.14203
-0.0446363
0.0470513
0.133221
0.218018
0.4256
0.689497
0.906549
1.0685
1.16116
1.20138
1.21159
-0.491377
-0.493758
-0.49819
-0.493817
-0.45421
-0.378754
-0.294043
-0.21017
-0.126735
-0.0400413
0.0391834
0.106702
0.16976
0.307368
0.487332
0.63418
0.743535
0.808208
0.837329
0.842358
-0.445916
-0.451295
-0.459235
-0.451
-0.407381
-0.333476
-0.255581
-0.181165
-0.109011
-0.0352557
0.0326824
0.0886207
0.142001
0.224561
0.344421
0.44382
0.51429
0.554661
0.570742
0.572807
-0.323935
-0.329635
-0.335337
-0.329352
-0.298432
-0.249609
-0.1959
-0.141013
-0.08578
-0.0273317
0.0263719
0.0701308
0.112251
0.163142
0.238638
0.303877
0.350636
0.377722
0.388887
0.389526
-0.164382
-0.167281
-0.171564
-0.172698
-0.164375
-0.147888
-0.123728
-0.0940627
-0.058822
-0.0179765
0.020388
0.0529862
0.0849341
0.114458
0.160643
0.20495
0.235841
0.254164
0.26049
0.259893
-0.0340644
-0.0354101
-0.0394079
-0.0473387
-0.0566232
-0.0616109
-0.0596683
-0.0500266
-0.032292
-0.00764913
0.0170983
0.0386637
0.0583877
0.0763608
0.104633
0.133226
0.154487
0.166239
0.17054
0.169412
0.0410387
0.040346
0.0365287
0.0265152
0.0111094
-0.00342581
-0.0127772
-0.0150155
-0.00968127
0.00213134
0.015074
0.0247902
0.0315894
0.0420191
0.0627263
0.083306
0.0976344
0.104855
0.106936
0.105599
0.0721458
0.0715676
0.0683395
0.0595376
0.0452912
0.0301076
0.0176036
0.00987662
0.00801028
0.0110458
0.0142115
0.0132047
0.00919822
0.0140229
0.0313029
0.0474277
0.0578811
0.0624411
0.0634793
0.0623714
0.0792784
0.0787934
0.076414
0.0700262
0.0592805
0.0468036
0.0352292
0.0264584
0.0213779
0.0193872
0.0164454
0.00819658
-0.00259866
0.00109808
0.0162528
0.0290986
0.0361881
0.0388244
0.0392501
0.0382796
0.0760924
0.0756986
0.0740783
0.0699173
0.0626997
0.053735
0.0446451
0.0369347
0.031447
0.0279771
0.0232013
0.0130936
0.00070276
0.00564661
0.019225
0.0282098
0.0320386
0.0325977
0.0323609
0.0316682
0.0697408
0.0694232
0.0683506
0.0658075
0.0613052
0.0553957
0.0490351
0.0433725
0.0392573
0.037428
0.0351158
0.0292842
0.0232399
0.0302891
0.0397703
0.0435278
0.0438695
0.0431912
0.0427626
0.0421668
0.0633867
0.0631407
0.0624293
0.0609022
0.0582482
0.0545735
0.050493
0.0469069
0.0448387
0.0454951
0.0495353
0.0537968
0.0577682
0.0653188
0.0687167
0.0689394
0.0681391
0.067471
0.0670402
0.0661781
0.0579151
0.0577384
0.0572527
0.0562559
0.0546775
0.0524485
0.0499525
0.0480664
0.0479831
0.0521
0.0634695
0.0805084
0.0970627
0.102865
0.0995924
0.0961849
0.0953277
0.0961965
0.0960634
0.094971
0.0531097
0.0529763
0.0526144
0.0518226
0.0506528
0.0493181
0.0477614
0.046799
0.0478498
0.054057
0.0708077
0.0986256
0.125302
0.129411
0.119635
0.113836
0.114457
0.116511
0.116752
0.115359
0.0485853
0.048498
0.0482595
0.0475908
0.0465584
0.0452517
0.0440999
0.0431473
0.043965
0.0494282
0.0659745
0.0969808
0.128062
0.12915
0.116112
0.112968
0.115143
0.118915
0.118282
0.116244
0.0439275
0.0438523
0.0436716
0.0430779
0.0421582
0.0408042
0.0389725
0.0375936
0.0365302
0.0377523
0.0467843
0.0677638
0.0915228
0.088312
0.0766918
0.0762801
0.0832342
0.0878727
0.0867764
0.0847968
0.0390687
0.0390217
0.0389376
0.0385738
0.0374643
0.0361303
0.0339775
0.0308032
0.0266214
0.0209555
0.0145696
0.0126412
0.0120452
0.00464618
0.00337541
0.0108701
0.0192794
0.022001
0.0208581
0.0193824
0.0336601
0.033613
0.0334921
0.0333884
0.0328439
0.0314407
0.0291024
0.0249377
0.0178308
0.00402651
-0.0210886
-0.0576758
-0.0962941
-0.101648
-0.088434
-0.0734631
-0.0669562
-0.0650895
-0.066153
-0.0674113
0.0280717
0.027977
0.0279972
0.0279784
0.0278085
0.0269527
0.0247747
0.0204819
0.0118983
-0.00684237
-0.0446741
-0.112834
-0.177526
-0.17999
-0.160748
-0.154308
-0.158501
-0.161691
-0.159977
-0.159404
0.0227525
0.0226886
0.0228803
0.0232971
0.0236805
0.0236347
0.0227938
0.019584
0.011558
-0.00627486
-0.0469749
-0.1114
-0.175322
-0.179725
-0.179018
-0.195659
-0.216627
-0.22505
-0.222507
-0.220773
0.0167062
0.0166507
0.0171165
0.0178883
0.0189736
0.0204068
0.0209906
0.0197337
0.0156022
0.00368965
-0.0215137
-0.0689248
-0.109675
-0.12465
-0.144274
-0.18024
-0.212992
-0.225485
-0.221385
-0.2177
0.00943688
0.00926484
0.00953011
0.0107435
0.0126164
0.0142302
0.0156636
0.0169792
0.0169835
0.0156897
0.00537441
-0.0143966
-0.0296616
-0.0496241
-0.078828
-0.109724
-0.131716
-0.138837
-0.138433
-0.136032
0.00270719
0.00245941
0.00199339
0.00134732
0.000861312
0.000669749
0.000885491
0.0014234
0.00263731
0.00477708
0.0101734
0.0174782
0.0172986
0.00526093
-0.0099885
-0.0173609
-0.0219343
-0.0249203
-0.0235017
-0.0221111
-5.43171e-05
0.174572
0.378601
0.554856
0.696599
0.809362
0.903227
0.982613
1.01818
0.995014
0.318097
0.443734
0.578467
0.695202
0.793997
0.876108
0.942571
0.989629
1.01331
1.02523
0.545988
0.631911
0.723845
0.805369
0.875573
0.934323
0.980985
1.01503
1.03951
1.05734
0.712193
0.77315
0.8376
0.896591
0.94799
0.991598
1.02735
1.0558
1.07906
1.09727
0.84142
0.886012
0.933206
0.978248
1.01805
1.05275
1.0824
1.10702
1.1277
1.14548
0.947862
0.981641
1.02061
1.05698
1.09031
1.12013
1.14615
1.16798
1.18603
1.20335
1.04182
1.07103
1.1056
1.13823
1.16862
1.19616
1.22021
1.24015
1.25579
1.27286
1.13128
1.16081
1.19517
1.22753
1.25741
1.28424
1.3073
1.32593
1.3394
1.35644
1.22713
1.26049
1.29738
1.33117
1.3614
1.38774
1.40982
1.42719
1.43913
1.45654
1.34249
1.38039
1.41917
1.45356
1.48302
1.50786
1.52831
1.54426
1.55578
1.57386
1.48764
1.52628
1.56246
1.59322
1.61897
1.64112
1.66022
1.67579
1.68825
1.70626
1.6628
1.69452
1.72074
1.74322
1.76323
1.78199
1.79973
1.81623
1.8316
1.84968
1.85148
1.86873
1.88381
1.90007
1.91599
1.93054
1.94376
1.95771
1.97526
1.99542
2.03332
2.04282
2.05437
2.06519
2.07449
2.08409
2.09489
2.10627
2.11764
2.133
2.24051
2.24419
2.22925
2.21445
2.20819
2.21388
2.23236
2.26268
2.29486
2.32152
2.54683
2.41198
2.33535
2.293
2.27559
2.27955
2.30696
2.36337
2.466
2.69037
0.8325
0.830369
0.825883
0.817252
0.805019
0.792878
0.782631
0.774707
0.769047
0.765735
0.765308
0.767967
0.773007
0.780182
0.789534
0.801048
0.813681
0.824702
0.830808
0.833856
0.756967
0.762812
0.769147
0.773631
0.776091
0.775752
0.772996
0.769157
0.765604
0.763281
0.763053
0.765169
0.768763
0.772999
0.776767
0.778621
0.777664
0.774166
0.768991
0.762366
0.748574
0.750869
0.754268
0.757256
0.759321
0.760801
0.761533
0.761183
0.760109
0.759159
0.759245
0.760581
0.762321
0.763566
0.763699
0.762773
0.761197
0.75884
0.755562
0.752636
0.743103
0.744189
0.746017
0.748386
0.750397
0.751808
0.752802
0.753515
0.753863
0.754008
0.754398
0.755101
0.75561
0.755603
0.755133
0.754239
0.752735
0.750623
0.748518
0.747129
0.737953
0.738616
0.73972
0.741416
0.743185
0.744799
0.746066
0.747038
0.747857
0.748558
0.74917
0.749596
0.749682
0.749427
0.748787
0.747674
0.746199
0.744618
0.743275
0.742489
0.733047
0.733508
0.73429
0.735581
0.737055
0.738553
0.739987
0.741238
0.742302
0.743253
0.744028
0.744444
0.744456
0.744069
0.743277
0.74221
0.741022
0.739841
0.738895
0.738372
0.728307
0.728651
0.72926
0.730322
0.731605
0.732959
0.734366
0.735761
0.737056
0.738216
0.739157
0.739662
0.73967
0.739247
0.738525
0.737647
0.736712
0.735781
0.735071
0.734687
0.723687
0.723954
0.724445
0.725351
0.726512
0.72779
0.729149
0.730582
0.732035
0.733415
0.73456
0.7352
0.735287
0.734978
0.734427
0.733735
0.732978
0.732253
0.731715
0.731421
0.719108
0.719319
0.719728
0.720526
0.721609
0.722837
0.724183
0.725652
0.727217
0.728805
0.730194
0.731039
0.731314
0.7312
0.730839
0.730328
0.729744
0.729189
0.728782
0.728551
0.714498
0.714666
0.715016
0.715744
0.716786
0.717995
0.719363
0.720898
0.722591
0.724395
0.726072
0.727211
0.727751
0.727873
0.727715
0.727385
0.726969
0.726553
0.726252
0.726069
0.709784
0.709918
0.710225
0.710912
0.71194
0.713172
0.714602
0.716251
0.718123
0.720183
0.722212
0.723731
0.724593
0.724979
0.72504
0.724895
0.72464
0.724358
0.724144
0.723999
0.704892
0.704996
0.705274
0.705945
0.706997
0.708299
0.709836
0.711657
0.71379
0.716211
0.718686
0.72064
0.721859
0.722536
0.722836
0.722882
0.722782
0.72262
0.72248
0.722366
0.699753
0.699831
0.70009
0.700766
0.701875
0.703286
0.704974
0.707014
0.70946
0.712316
0.715344
0.717841
0.719505
0.72054
0.721124
0.72139
0.721448
0.721404
0.721332
0.721244
0.694285
0.694339
0.694586
0.695288
0.696486
0.698045
0.69994
0.70227
0.705118
0.70853
0.712238
0.715393
0.717592
0.719046
0.719957
0.720488
0.720724
0.720807
0.720798
0.720733
0.688397
0.688426
0.688669
0.689415
0.69073
0.692478
0.694647
0.697361
0.700724
0.704808
0.709352
0.713337
0.716195
0.718149
0.719424
0.720221
0.720693
0.720914
0.720973
0.72093
0.681969
0.681976
0.682211
0.683011
0.684484
0.686484
0.689002
0.692197
0.696229
0.701209
0.706797
0.711735
0.715354
0.717915
0.719655
0.720781
0.721506
0.721877
0.722007
0.721985
0.674799
0.674785
0.675047
0.675919
0.677564
0.679842
0.682784
0.686564
0.69138
0.697392
0.704249
0.710435
0.715036
0.718348
0.720664
0.722257
0.723309
0.72387
0.724079
0.724074
0.666648
0.666605
0.666888
0.667872
0.669751
0.672415
0.675919
0.680483
0.686368
0.693755
0.702184
0.709789
0.715497
0.719669
0.722671
0.724819
0.726259
0.727053
0.727352
0.727361
0.657166
0.657101
0.657426
0.658553
0.660716
0.663858
0.66806
0.673593
0.680766
0.689803
0.700157
0.709549
0.716649
0.721901
0.725747
0.728559
0.730478
0.731559
0.731955
0.731971
0.645792
0.645706
0.646104
0.647439
0.65
0.653802
0.658952
0.665781
0.674652
0.685798
0.6985
0.709982
0.718679
0.725167
0.730001
0.733573
0.736058
0.737451
0.737944
0.73796
0.631777
0.631671
0.632199
0.633867
0.637011
0.641746
0.648197
0.656755
0.667822
0.681604
0.697149
0.711108
0.721667
0.729588
0.735534
0.739961
0.74307
0.744787
0.745374
0.745385
0.614123
0.613998
0.614736
0.616921
0.620942
0.627032
0.635307
0.646217
0.660149
0.67722
0.696176
0.713007
0.7257
0.73522
0.742435
0.747814
0.75159
0.753638
0.754314
0.754318
0.59141
0.591276
0.592366
0.59537
0.600788
0.608917
0.61985
0.634016
0.651689
0.672832
0.695793
0.715891
0.730955
0.742261
0.750862
0.757299
0.761771
0.764144
0.764896
0.764886
0.561387
0.561282
0.563009
0.567431
0.575176
0.586531
0.6014
0.620035
0.642513
0.668566
0.696141
0.719869
0.737529
0.750794
0.76089
0.768502
0.773712
0.776391
0.777194
0.777161
0.520005
0.520073
0.523216
0.530574
0.542543
0.559164
0.579834
0.604495
0.632976
0.6648
0.697522
0.725154
0.745556
0.76088
0.772601
0.781469
0.787422
0.790324
0.791132
0.791065
0.459533
0.460771
0.468461
0.482293
0.501974
0.5269
0.555682
0.588025
0.623629
0.661928
0.700165
0.731852
0.755051
0.772477
0.785858
0.796006
0.802605
0.805634
0.806341
0.806228
0.387153
0.38911
0.403723
0.427598
0.45818
0.492848
0.530539
0.571138
0.614469
0.660039
0.704848
0.741771
0.768868
0.789349
0.80511
0.816845
0.82442
0.827818
0.828699
0.828702
0.312528
0.319049
0.340484
0.374503
0.415277
0.45951
0.506094
0.555001
0.606144
0.659106
0.710689
0.753072
0.784271
0.808036
0.826496
0.840199
0.848783
0.851902
0.852661
0.8528
0.252028
0.260568
0.286663
0.327608
0.376258
0.428576
0.483137
0.53978
0.598346
0.658362
0.716361
0.763829
0.798728
0.825251
0.84562
0.860594
0.869604
0.873541
0.874936
0.875159
0.202779
0.211878
0.241443
0.28742
0.34212
0.40094
0.462205
0.525656
0.590954
0.657527
0.7215
0.773599
0.81171
0.840433
0.862339
0.878422
0.888549
0.893197
0.894872
0.895137
0.161631
0.170937
0.202814
0.252614
0.312186
0.376365
0.443314
0.512696
0.584017
0.656559
0.726019
0.782287
0.823175
0.853764
0.876932
0.893921
0.904874
0.910084
0.911995
0.91229
0.126136
0.135504
0.169101
0.221958
0.285437
0.354123
0.426015
0.500641
0.577389
0.655395
0.729888
0.789928
0.833225
0.86534
0.889467
0.90719
0.918726
0.924437
0.926472
0.926783
0.0946549
0.104039
0.138911
0.194309
0.261006
0.333537
0.409764
0.489098
0.57081
0.653866
0.733049
0.796548
0.841988
0.875381
0.900265
0.918472
0.93036
0.936414
0.938566
0.938897
0.0658988
0.0753239
0.11128
0.16878
0.238198
0.314054
0.394123
0.477719
0.563998
0.651794
0.735421
0.80221
0.849651
0.884212
0.909756
0.928309
0.940448
0.946708
0.948879
0.949221
0.0390046
0.0484809
0.0854423
0.1447
0.216516
0.295275
0.378763
0.46623
0.556746
0.649023
0.736946
0.806962
0.856384
0.892083
0.91826
0.937139
0.949403
0.955766
0.957913
0.958189
0.0133893
0.022973
0.0608336
0.121613
0.195591
0.276909
0.363463
0.454455
0.5489
0.645436
0.737569
0.810847
0.862323
0.899236
0.926071
0.945274
0.957679
0.964013
0.966161
0.966358
-0.0114094
-0.00162243
0.0370226
0.0992891
0.175154
0.258761
0.348074
0.442275
0.540367
0.640955
0.737246
0.813901
0.867583
0.905846
0.933439
0.953008
0.965542
0.971849
0.973912
0.974118
-0.0356096
-0.0255848
0.01384
0.0775384
0.155061
0.240711
0.332507
0.429627
0.531087
0.635528
0.735943
0.816125
0.87224
0.912036
0.940514
0.960526
0.973198
0.979448
0.981386
0.98155
-0.0592803
-0.0490175
-0.00875409
0.0561938
0.135237
0.222718
0.316731
0.416487
0.521041
0.629116
0.73361
0.817498
0.876309
0.917875
0.94739
0.967896
0.980673
0.98679
0.988568
0.988657
-0.0825417
-0.0719417
-0.0309463
0.035219
0.115646
0.204763
0.300753
0.402873
0.510243
0.621715
0.730191
0.817943
0.879758
0.923399
0.954128
0.975161
0.987978
0.993886
0.995437
0.995436
-0.105343
-0.0944433
-0.0526623
0.0146061
0.0962982
0.186874
0.284619
0.388833
0.49873
0.613324
0.725634
0.817359
0.882518
0.928616
0.960809
0.982395
0.995101
1.00064
1.00192
1.00184
-0.127709
-0.116477
-0.0738822
-0.00559953
0.0772308
0.169096
0.268381
0.37444
0.486567
0.603975
0.719905
0.815654
0.884468
0.933484
0.96753
0.989739
1.0021
1.00702
1.00795
1.00779
-0.149438
-0.137948
-0.0945747
-0.0253502
0.0585038
0.151508
0.252115
0.359772
0.473838
0.593739
0.712998
0.812728
0.885439
0.937885
0.974384
0.997489
1.00921
1.01305
1.01345
1.01322
-0.170662
-0.158808
-0.1147
-0.0446118
0.0401574
0.134158
0.235919
0.344919
0.460642
0.58271
0.704934
0.808473
0.885236
0.941591
0.981349
1.00609
1.01711
1.01909
1.01842
1.01806
-0.191204
-0.17902
-0.134217
-0.0633259
0.0222764
0.117133
0.219876
0.330007
0.447096
0.570966
0.695768
0.802813
0.883645
0.944243
0.98812
1.01585
1.02706
1.02665
1.0235
1.0221
-0.211116
-0.198618
-0.153065
-0.0814325
0.00490407
0.100503
0.204073
0.315118
0.433318
0.558653
0.685592
0.795688
0.880472
0.945377
0.993933
1.02635
1.0403
1.03927
1.03206
1.02238
-0.230309
-0.217556
-0.171338
-0.0990825
-0.0121694
0.0839842
0.188166
0.299841
0.418842
0.545244
0.673838
0.786468
0.875125
0.944387
0.997632
1.03612
1.05623
1.05805
1.0483
1.04004
-0.248729
-0.235749
-0.18903
-0.11623
-0.0289304
0.0675738
0.172177
0.284159
0.40363
0.530634
0.660341
0.774819
0.866926
0.940521
0.996792
1.03964
1.06273
1.06979
1.03291
0.979592
-0.266085
-0.252417
-0.206029
-0.132805
-0.0454812
0.0511358
0.156062
0.268194
0.38775
0.514898
0.645059
0.760599
0.854897
0.933437
0.9894
1.02579
1.04988
1.03821
0.981373
0.916937
-0.282704
-0.268114
-0.222144
-0.148167
-0.061477
0.035151
0.139596
0.252007
0.371346
0.498211
0.628021
0.743673
0.837959
0.924244
0.973728
1.02549
0.995529
0.954155
0.884695
0.816492
-0.268738