/*--------------------------------*- C++ -*----------------------------------*\
  =========                 |
  \\      /  F ield         | OpenFOAM: The Open Source CFD Toolbox
   \\    /   O peration     | Website:  https://openfoam.org
    \\  /    A nd           | Version:  9
     \\/     M anipulation  |
\*---------------------------------------------------------------------------*/
FoamFile
{
    format      ascii;
    class       volVectorField;
    location    "36";
    object      U;
}
// * * * * * * * * * * * * * * * * * * * * * * * * * * * * * * * * * * * * * //

dimensions      [0 1 -1 0 0 0 0];

internalField   nonuniform List<vector> 
8800
(
(0.980154 -0.0915212 0)
(1.00234 -0.0587231 0)
(0.999606 -0.0321242 0)
(0.999996 -0.0165149 0)
(1.00005 -0.00882888 0)
(1.00004 -0.00507936 0)
(1.00001 -0.00298725 0)
(0.999985 -0.00169797 0)
(0.999973 -0.000809272 0)
(1.00006 -0.000118373 0)
(0.999978 0.000582478 0)
(0.999997 0.00133568 0)
(1.00001 0.0023709 0)
(1.00002 0.00398279 0)
(1.00003 0.00673194 0)
(1 0.0120377 0)
(0.999829 0.0230902 0)
(0.99905 0.0431567 0)
(1.00723 0.079028 0)
(0.775024 0.0478396 0)
(0.358975 -0.0147491 0)
(1.04649 -0.0724943 0)
(1.08848 -0.0660319 0)
(1.04946 -0.0509255 0)
(1.02554 -0.0377057 0)
(1.01269 -0.0258974 0)
(1.00652 -0.0167121 0)
(1.00358 -0.0102519 0)
(1.00215 -0.00564055 0)
(1.00149 -0.00205756 0)
(1.00136 0.0011359 0)
(1.00173 0.00443589 0)
(1.00271 0.00833215 0)
(1.00473 0.0136632 0)
(1.00896 0.0213565 0)
(1.01795 0.0318556 0)
(1.03581 0.0446377 0)
(1.06744 0.0580905 0)
(1.09472 0.0699623 0)
(0.845666 0.0555026 0)
(0.217756 -0.00138175 0)
(1.07566 -0.0506697 0)
(1.09941 -0.0489576 0)
(1.06438 -0.0400458 0)
(1.03985 -0.0325868 0)
(1.02373 -0.0253766 0)
(1.01397 -0.0181867 0)
(1.00847 -0.0115995 0)
(1.00562 -0.00586416 0)
(1.00447 -0.000590234 0)
(1.00479 0.00450536 0)
(1.00665 0.00978464 0)
(1.01057 0.0157705 0)
(1.01788 0.0225553 0)
(1.0305 0.0296807 0)
(1.05049 0.0367776 0)
(1.08007 0.0445621 0)
(1.1057 0.051898 0)
(0.943352 0.0409919 0)
(0.217251 0.00140283 0)
(0.176596 -0.000629263 0)
(1.01935 -0.035482 0)
(1.1057 -0.0414381 0)
(1.07795 -0.0364258 0)
(1.05238 -0.0303797 0)
(1.03513 -0.0245121 0)
(1.0233 -0.0187604 0)
(1.0155 -0.0128083 0)
(1.01091 -0.00674552 0)
(1.0089 -0.000535451 0)
(1.00944 0.00560208 0)
(1.01253 0.0115059 0)
(1.01848 0.0172862 0)
(1.02807 0.0228894 0)
(1.04229 0.0284673 0)
(1.06311 0.0342674 0)
(1.09391 0.0401691 0)
(1.09452 0.041716 0)
(0.830396 0.0227482 0)
(0.175733 0.000646029 0)
(0.154668 -0.000462982 0)
(0.958074 -0.0257093 0)
(1.10436 -0.0351517 0)
(1.08803 -0.0327148 0)
(1.06115 -0.028216 0)
(1.04309 -0.0232767 0)
(1.03073 -0.0180293 0)
(1.02216 -0.0125317 0)
(1.01662 -0.00666349 0)
(1.01399 -0.000253702 0)
(1.01467 0.00617486 0)
(1.01848 0.0120334 0)
(1.02526 0.0173736 0)
(1.03539 0.0224215 0)
(1.05017 0.0272824 0)
(1.07211 0.0317415 0)
(1.10111 0.0356333 0)
(1.06989 0.0338725 0)
(0.742913 0.0144103 0)
(0.153379 0.000481927 0)
(0.139965 -0.00033489 0)
(0.900999 -0.0193425 0)
(1.09671 -0.0302563 0)
(1.09611 -0.0293897 0)
(1.0688 -0.0256152 0)
(1.04996 -0.0215592 0)
(1.03703 -0.0169372 0)
(1.02806 -0.0117618 0)
(1.02214 -0.00610624 0)
(1.0192 0.000192406 0)
(1.01986 0.00653086 0)
(1.0239 0.0121588 0)
(1.03094 0.017142 0)
(1.04146 0.021638 0)
(1.05686 0.0256294 0)
(1.07966 0.0291834 0)
(1.10348 0.0319276 0)
(1.03829 0.0279839 0)
(0.676363 0.0102463 0)
(0.138155 0.000357401 0)
(0.12921 -0.000253631 0)
(0.851055 -0.0149404 0)
(1.0843 -0.0261578 0)
(1.10175 -0.0265237 0)
(1.07557 -0.0232193 0)
(1.05619 -0.0196122 0)
(1.04282 -0.0155062 0)
(1.03349 -0.0107266 0)
(1.02731 -0.00531357 0)
(1.02416 0.000760136 0)
(1.02474 0.00684139 0)
(1.02881 0.0121721 0)
(1.03601 0.0167419 0)
(1.04684 0.0206556 0)
(1.06266 0.0240509 0)
(1.08593 0.0271369 0)
(1.10284 0.0289952 0)
(1.00391 0.0233788 0)
(0.624692 0.00782121 0)
(0.126764 0.000280921 0)
(0.121013 -0.000194846 0)
(0.808511 -0.0117432 0)
(1.06888 -0.0225451 0)
(1.10515 -0.0238908 0)
(1.0817 -0.0210712 0)
(1.06187 -0.0177167 0)
(1.04825 -0.0139074 0)
(1.03866 -0.00947232 0)
(1.0322 -0.00437269 0)
(1.02883 0.00144107 0)
(1.02929 0.00724247 0)
(1.03336 0.0122012 0)
(1.04067 0.0163001 0)
(1.05161 0.0197379 0)
(1.06768 0.0227447 0)
(1.09133 0.0255142 0)
(1.09937 0.0264766 0)
(0.96929 0.0197128 0)
(0.583458 0.0062228 0)
(0.117796 0.000227809 0)
(0.114663 -0.000150377 0)
(0.772669 -0.00934029 0)
(1.05194 -0.0193515 0)
(1.10738 -0.02143 0)
(1.08743 -0.0189797 0)
(1.06717 -0.0157974 0)
(1.05328 -0.0121979 0)
(1.04351 -0.00802243 0)
(1.03685 -0.00321371 0)
(1.03325 0.00227893 0)
(1.03353 0.00770683 0)
(1.03752 0.0122425 0)
(1.04479 0.0158963 0)
(1.05578 0.0189431 0)
(1.07213 0.0216311 0)
(1.09556 0.0241037 0)
(1.09324 0.0243083 0)
(0.935842 0.0168207 0)
(0.5497 0.00510606 0)
(0.110507 0.000190391 0)
(0.109713 -0.000115175 0)
(0.742635 -0.0074624 0)
(1.0345 -0.0164917 0)
(1.1086 -0.0191245 0)
(1.09282 -0.0170514 0)
(1.07225 -0.0140226 0)
(1.05808 -0.0105331 0)
(1.04814 -0.00649211 0)
(1.04129 -0.00190034 0)
(1.03745 0.00327465 0)
(1.03751 0.00831374 0)
(1.04133 0.0124516 0)
(1.04849 0.0157678 0)
(1.0595 0.0185078 0)
(1.07611 0.0208707 0)
(1.09855 0.0229566 0)
(1.08483 0.0224307 0)
(0.904234 0.0145461 0)
(0.521421 0.00430081 0)
(0.104419 0.000163861 0)
(0.10588 -8.5828e-05 0)
(0.717646 -0.00593191 0)
(1.01748 -0.013883 0)
(1.10889 -0.0168097 0)
(1.09797 -0.0150394 0)
(1.07716 -0.0120823 0)
(1.06271 -0.00869918 0)
(1.05256 -0.00480737 0)
(1.04548 -0.000411369 0)
(1.04137 0.00447907 0)
(1.04113 0.00915082 0)
(1.04473 0.0128832 0)
(1.05177 0.015795 0)
(1.06282 0.0181673 0)
(1.07963 0.0202233 0)
(1.10022 0.02195 0)
(1.07458 0.0207583 0)
(0.874722 0.0127483 0)
(0.497244 0.00370756 0)
(0.0991988 0.000144902 0)
(0.102975 -6.08353e-05 0)
(0.697095 -0.00463335 0)
(1.00154 -0.011478 0)
(1.10853 -0.0145323 0)
(1.10295 -0.0129844 0)
(1.08197 -0.0100336 0)
(1.06717 -0.00670816 0)
(1.05677 -0.0029242 0)
(1.04944 0.00131199 0)
(1.04501 0.00592903 0)
(1.04442 0.0102173 0)
(1.04772 0.0135416 0)
(1.05459 0.0160488 0)
(1.06564 0.0180468 0)
(1.08268 0.0198308 0)
(1.10102 0.0211944 0)
(1.06294 0.0193735 0)
(0.84727 0.0113581 0)
(0.476157 0.00327926 0)
(0.0946022 0.000133652 0)
(0.100885 -3.75866e-05 0)
(0.680576 -0.0034675 0)
(0.987139 -0.00916853 0)
(1.10758 -0.0121681 0)
(1.10759 -0.010847 0)
(1.08674 -0.00794924 0)
(1.07159 -0.00459124 0)
(1.06088 -0.000808003 0)
(1.05319 0.00331206 0)
(1.04833 0.00768762 0)
(1.04732 0.0116201 0)
(1.05029 0.0145239 0)
(1.05697 0.0166527 0)
(1.06802 0.0183093 0)
(1.08524 0.0197363 0)
(1.10077 0.0206338 0)
(1.05012 0.0181929 0)
(0.821728 0.0102649 0)
(0.457424 0.00296452 0)
(0.090442 0.000126812 0)
(0.0995556 -1.41946e-05 0)
(0.667851 -0.00236879 0)
(0.974751 -0.00689323 0)
(1.10639 -0.00959569 0)
(1.11196 -0.00836939 0)
(1.09153 -0.00546957 0)
(1.07606 -0.00207784 0)
(1.06498 0.0016698 0)
(1.05687 0.00567944 0)
(1.0515 0.00984129 0)
(1.04994 0.0134013 0)
(1.0525 0.0158401 0)
(1.05894 0.0174783 0)
(1.06992 0.0186796 0)
(1.08705 0.0197463 0)
(1.09947 0.020253 0)
(1.03636 0.0171851 0)
(0.797912 0.00941772 0)
(0.440487 0.00274113 0)
(0.0865763 0.000124181 0)
(0.0989787 1.33341e-05 0)
(0.658857 -0.00128116 0)
(0.964772 -0.00457694 0)
(1.10544 -0.00681188 0)
(1.11634 -0.0055622 0)
(1.09637 -0.00262877 0)
(1.08047 0.000787277 0)
(1.069 0.00454346 0)
(1.06044 0.00852164 0)
(1.05445 0.0124687 0)
(1.05222 0.015619 0)
(1.05422 0.0175937 0)
(1.06028 0.01874 0)
(1.07123 0.0194715 0)
(1.08844 0.0201186 0)
(1.09704 0.0200827 0)
(1.02196 0.0164607 0)
(0.775577 0.00881002 0)
(0.424892 0.00260496 0)
(0.0828913 0.000125974 0)
(0.0991731 3.90086e-05 0)
(0.653591 -0.000156375 0)
(0.957441 -0.00215852 0)
(1.10487 -0.00381324 0)
(1.12071 -0.00258598 0)
(1.10127 0.000374419 0)
(1.08496 0.00397539 0)
(1.073 0.00787867 0)
(1.0638 0.0118767 0)
(1.05701 0.0156781 0)
(1.05398 0.0184678 0)
(1.05535 0.0199223 0)
(1.06103 0.0205268 0)
(1.07182 0.0207508 0)
(1.08885 0.0209165 0)
(1.09339 0.0202837 0)
(1.00676 0.0159585 0)
(0.754418 0.00840105 0)
(0.410212 0.00253992 0)
(0.0792593 0.000131387 0)
(0.100232 7.10639e-05 0)
(0.652232 0.0010517 0)
(0.953159 0.000411771 0)
(1.10501 -0.000386375 0)
(1.12513 0.00102362 0)
(1.10642 0.00410072 0)
(1.08975 0.00790188 0)
(1.07722 0.0119592 0)
(1.06726 0.0160023 0)
(1.05953 0.0196349 0)
(1.0555 0.0219795 0)
(1.05605 0.0228437 0)
(1.06117 0.0228269 0)
(1.0717 0.0224544 0)
(1.08817 0.0219861 0)
(1.08824 0.0206589 0)
(0.990944 0.0157002 0)
(0.73418 0.00820607 0)
(0.396085 0.00254382 0)
(0.0755916 0.000138897 0)
(0.102276 0.000103187 0)
(0.65475 0.00229109 0)
(0.952347 0.00317014 0)
(1.1066 0.00335482 0)
(1.13004 0.00515024 0)
(1.11186 0.0085068 0)
(1.09471 0.012519 0)
(1.08151 0.0167552 0)
(1.07065 0.0209205 0)
(1.06177 0.0244738 0)
(1.05648 0.0264199 0)
(1.05601 0.0266739 0)
(1.06045 0.0259141 0)
(1.07067 0.0248258 0)
(1.08642 0.0236723 0)
(1.08163 0.0215609 0)
(0.974429 0.0158946 0)
(0.714384 0.0082873 0)
(0.382085 0.00263306 0)
(0.0718032 0.000147751 0)
(0.105447 0.000154824 0)
(0.661847 0.00372688 0)
(0.955092 0.00607595 0)
(1.10982 0.00743439 0)
(1.13557 0.00964908 0)
(1.11771 0.0133809 0)
(1.09999 0.0178208 0)
(1.08601 0.0224883 0)
(1.07405 0.0269376 0)
(1.06368 0.0304284 0)
(1.0569 0.0318968 0)
(1.05521 0.0314614 0)
(1.05874 0.029963 0)
(1.06848 0.028152 0)
(1.08334 0.0262403 0)
(1.07339 0.0231768 0)
(0.956768 0.0166403 0)
(0.694418 0.0087485 0)
(0.367619 0.00284277 0)
(0.067784 0.000158798 0)
(0.109971 0.000218426 0)
(0.673576 0.00532106 0)
(0.961825 0.00932996 0)
(1.11499 0.012033 0)
(1.14189 0.0148127 0)
(1.12434 0.0191049 0)
(1.10605 0.0242084 0)
(1.0911 0.0294921 0)
(1.07775 0.0343046 0)
(1.06559 0.0377593 0)
(1.05694 0.0387091 0)
(1.05375 0.0374927 0)
(1.05616 0.0351806 0)
(1.06521 0.0325942 0)
(1.07872 0.0298457 0)
(1.06318 0.0256306 0)
(0.937746 0.0182055 0)
(0.673399 0.00973475 0)
(0.351848 0.00321053 0)
(0.0633762 0.00017502 0)
(0.116081 0.000299191 0)
(0.690285 0.0071945 0)
(0.973268 0.0130829 0)
(1.12283 0.0173575 0)
(1.14952 0.0211187 0)
(1.13203 0.0263369 0)
(1.11295 0.0322811 0)
(1.09659 0.0382332 0)
(1.08137 0.0434085 0)
(1.06698 0.0467471 0)
(1.05613 0.0470144 0)
(1.05125 0.0448304 0)
(1.05246 0.0415565 0)
(1.06069 0.0381244 0)
(1.07243 0.0345453 0)
(1.05104 0.0292132 0)
(0.916881 0.0207364 0)
(0.650135 0.0112468 0)
(0.333834 0.00372583 0)
(0.0583665 0.000197711 0)
(0.124185 0.000411014 0)
(0.712604 0.00963251 0)
(0.989792 0.0176499 0)
(1.13424 0.0236689 0)
(1.15939 0.0287552 0)
(1.14127 0.0352676 0)
(1.12093 0.0422091 0)
(1.10275 0.0489414 0)
(1.08525 0.0545545 0)
(1.06815 0.057741 0)
(1.05468 0.0572123 0)
(1.04777 0.0538971 0)
(1.04759 0.0494783 0)
(1.05496 0.0450525 0)
(1.06455 0.0406841 0)
(1.03673 0.0341474 0)
(0.893245 0.0242305 0)
(0.623388 0.0132245 0)
(0.312778 0.00436008 0)
(0.0525837 0.000226281 0)
(0.134996 0.000577437 0)
(0.741689 0.0130455 0)
(1.01216 0.0236254 0)
(1.14968 0.0315553 0)
(1.17203 0.038119 0)
(1.15233 0.0461532 0)
(1.13012 0.0543862 0)
(1.10956 0.0621259 0)
(1.08915 0.0682359 0)
(1.06874 0.07117 0)
(1.05223 0.0696642 0)
(1.04302 0.0650727 0)
(1.04128 0.0593339 0)
(1.04775 0.0538057 0)
(1.05501 0.0484186 0)
(1.0195 0.0402974 0)
(0.865808 0.0285207 0)
(0.592049 0.0155216 0)
(0.288125 0.00504623 0)
(0.0459229 0.000255129 0)
(0.149732 0.000843864 0)
(0.779398 0.0181109 0)
(1.04195 0.0319156 0)
(1.16973 0.042212 0)
(1.18779 0.050715 0)
(1.16563 0.0603858 0)
(1.14086 0.0701627 0)
(1.11713 0.0789074 0)
(1.09304 0.0852334 0)
(1.06869 0.0874552 0)
(1.04872 0.0845426 0)
(1.03691 0.0784178 0)
(1.0334 0.0712593 0)
(1.03881 0.0643073 0)
(1.04315 0.0574569 0)
(0.998492 0.0475901 0)
(0.833622 0.0335815 0)
(0.555211 0.0180429 0)
(0.259644 0.00573986 0)
(0.0384195 0.000278812 0)
(0.170585 0.00131198 0)
(0.829012 0.0260028 0)
(1.08206 0.0441524 0)
(1.19543 0.0576576 0)
(1.20718 0.0687563 0)
(1.18135 0.0803268 0)
(1.15299 0.0914323 0)
(1.12501 0.10062 0)
(1.09634 0.106342 0)
(1.06743 0.106947 0)
(1.04366 0.101762 0)
(1.0292 0.0934906 0)
(1.02385 0.0846917 0)
(1.02767 0.0763753 0)
(1.02833 0.0679526 0)
(0.973186 0.0561599 0)
(0.795436 0.0393735 0)
(0.512274 0.0207288 0)
(0.22741 0.00640922 0)
(0.0302193 0.000292768 0)
(0.201015 0.00236481 0)
(0.89651 0.0394994 0)
(1.13538 0.0640719 0)
(1.22762 0.0810369 0)
(1.23055 0.0952703 0)
(1.199 0.108351 0)
(1.16558 0.119811 0)
(1.13219 0.128197 0)
(1.09819 0.132094 0)
(1.06427 0.129983 0)
(1.03646 0.12171 0)
(1.01938 0.11069 0)
(1.01242 0.0997274 0)
(1.01463 0.0899929 0)
(1.01071 0.0803903 0)
(0.942707 0.0663237 0)
(0.74967 0.0455911 0)
(0.463549 0.0235781 0)
(0.192346 0.0070685 0)
(0.0217342 0.000292072 0)
(0.242574 0.00864002 6.16704e-20)
(0.985819 0.0666613 5.35866e-20)
(1.19966 0.097775 -1.85628e-20)
(1.26449 0.116045 0)
(1.25557 0.133387 -4.54378e-34)
(1.21669 0.146173 6.59128e-21)
(1.17702 0.156199 -1.15778e-20)
(1.13751 0.162392 0)
(1.09775 0.163562 2.3117e-34)
(1.05843 0.158286 -1.37169e-20)
(1.0262 0.146949 0)
(1.00604 0.133359 -1.60022e-20)
(0.997265 0.120365 -4.70056e-20)
(0.998217 0.109371 -2.21422e-20)
(0.988654 0.0986929 -6.63873e-21)
(0.902082 0.0806305 -3.93428e-21)
(0.69161 0.0544063 0)
(0.406187 0.0278608 2.75725e-21)
(0.155097 0.00876514 3.2577e-21)
(0.0138173 0.000573731 5.86194e-20)
(0.270803 0.0241999 4.90216e-20)
(1.05871 0.109078 5.19769e-22)
(1.25182 0.146025 5.13307e-21)
(1.2986 0.164755 0)
(1.2781 0.181313 -2.36747e-20)
(1.23201 0.192154 -2.65231e-20)
(1.18593 0.199941 -1.18409e-20)
(1.14026 0.203878 -4.12323e-20)
(1.0945 0.202746 0)
(1.04924 0.195157 5.86513e-20)
(1.01166 0.181917 5.76679e-20)
(0.987273 0.166981 1.70504e-20)
(0.975299 0.152639 6.16215e-20)
(0.971697 0.138944 8.60466e-20)
(0.949583 0.122876 0)
(0.844415 0.0992201 1.2113e-19)
(0.624444 0.0666159 1.73967e-19)
(0.34897 0.0346112 1.93321e-19)
(0.122946 0.0114211 -2.211e-19)
(0.00755318 0.000695697 -4.15195e-21)
(0.270595 0.0395953 0)
(1.10339 0.164305 9.52225e-21)
(1.28681 0.205542 0)
(1.32494 0.223918 -3.33992e-20)
(1.29591 0.23662 0)
(1.24362 0.243588 -5.3227e-20)
(1.19176 0.247875 2.44592e-20)
(1.14051 0.248738 -8.40739e-20)
(1.08926 0.244819 -1.56874e-21)
(1.03857 0.234656 3.05965e-20)
(0.996058 0.219206 1.2676e-19)
(0.967289 0.202427 -3.04205e-22)
(0.95051 0.186028 -4.4803e-20)
(0.939386 0.169186 -8.12898e-20)
(0.907626 0.149097 9.62376e-20)
(0.800455 0.121076 -1.704e-19)
(0.589219 0.0830913 -2.25046e-20)
(0.329863 0.0449121 0)
(0.11915 0.0158633 9.3069e-24)
(0.00757682 0.00107518 0)
(0.263388 0.0530005 1.46942e-19)
(1.12586 0.222688 -6.83542e-20)
(1.30779 0.269724 -4.82442e-20)
(1.34173 0.287768 1.63918e-20)
(1.30721 0.296063 -2.72573e-20)
(1.25054 0.298533 1.12252e-19)
(1.19422 0.298827 5.14135e-20)
(1.13831 0.296167 0)
(1.08228 0.288944 -1.55842e-19)
(1.0266 0.275512 0)
(0.979329 0.256889 -6.68879e-20)
(0.946034 0.237164 -8.16875e-20)
(0.923955 0.218024 -4.88596e-20)
(0.90603 0.198513 -5.90832e-20)
(0.869779 0.176398 0)
(0.768999 0.146358 0)
(0.573187 0.104295 -1.47522e-19)
(0.332203 0.059735 2.91227e-20)
(0.128259 0.0230475 -1.70979e-20)
(0.0106427 0.00203984 -1.99889e-20)
(0.255449 0.0649408 -7.50864e-20)
(1.13424 0.280903 0)
(1.31833 0.334804 1.07068e-19)
(1.34999 0.353018 4.81644e-20)
(1.31209 0.357121 6.1686e-20)
(1.25263 0.3552 0)
(1.19308 0.35154 5.13228e-20)
(1.13343 0.345178 9.39109e-20)
(1.07325 0.334284 8.05137e-20)
(1.01302 0.316922 1.44112e-19)
(0.961209 0.294384 0)
(0.923584 0.271287 -1.7638e-19)
(0.896823 0.249423 -1.05679e-19)
(0.874053 0.228215 -6.23061e-20)
(0.836538 0.205311 3.81059e-19)
(0.744322 0.17432 4.5454e-20)
(0.565134 0.12829 2.14083e-19)
(0.340754 0.0774124 -1.01177e-18)
(0.141608 0.0324834 6.01083e-19)
(0.0149881 0.00363543 -7.24447e-19)
(0.24822 0.0757498 -5.63891e-20)
(1.13394 0.337108 1.42705e-20)
(1.32119 0.398973 -1.36128e-20)
(1.35136 0.417881 -5.53688e-20)
(1.31148 0.418266 -5.59634e-20)
(1.25041 0.41232 1.75751e-21)
(1.1885 0.404894 -5.54896e-20)
(1.12582 0.394807 9.78553e-20)
(1.06204 0.380026 -1.73275e-19)
(0.997656 0.358396 0)
(0.941693 0.33169 -8.02967e-20)
(0.900245 0.305295 -1.61118e-21)
(0.869764 0.281185 -1.15382e-19)
(0.843853 0.258877 0)
(0.806484 0.235428 -8.24559e-20)
(0.722757 0.203316 -1.96391e-19)
(0.558974 0.153855 5.26075e-19)
(0.349459 0.0965947 -5.17547e-19)
(0.153942 0.0431092 7.36069e-19)
(0.0191185 0.00559534 -7.64854e-19)
(0.242444 0.0858311 -4.0437e-22)
(1.12858 0.390723 -1.0984e-20)
(1.31868 0.461294 -4.79912e-20)
(1.34749 0.481151 2.51906e-20)
(1.30647 0.478468 -2.87268e-20)
(1.24458 0.468971 0)
(1.18094 0.458012 -5.32725e-20)
(1.11572 0.444256 -1.02896e-19)
(1.04875 0.425538 -9.05211e-20)
(0.98064 0.399562 0)
(0.920962 0.368742 -8.36641e-20)
(0.876371 0.339256 -1.02536e-19)
(0.843203 0.313179 1.24916e-19)
(0.815472 0.289898 -7.54956e-20)
(0.778825 0.26605 -3.58822e-19)
(0.701067 0.23273 2.14491e-19)
(0.551125 0.179969 6.43741e-20)
(0.35407 0.116043 0)
(0.162391 0.0538175 -7.09998e-19)
(0.0222093 0.0075946 -2.60185e-20)
(0.238124 0.0955099 -4.92827e-21)
(1.12044 0.441585 9.04595e-21)
(1.31264 0.521761 2.43888e-20)
(1.33987 0.542113 8.56441e-20)
(1.2981 0.53699 -1.11487e-19)
(1.23587 0.524429 1.15894e-19)
(1.17091 0.510205 1.14481e-19)
(1.10353 0.492925 -1.64499e-19)
(1.03374 0.470349 5.46152e-20)
(0.962256 0.440119 -3.54393e-19)
(0.899315 0.405317 -9.39443e-20)
(0.852132 0.372853 0)
(0.817052 0.34483 1.35129e-19)
(0.788239 0.320384 1.61192e-19)
(0.75243 0.29565 1.92617e-19)
(0.679667 0.260601 -2.32113e-19)
(0.540513 0.204825 -6.87385e-20)
(0.353405 0.134228 8.09354e-20)
(0.16569 0.0633769 0)
(0.02389 0.00929911 -5.62867e-20)
(0.235075 0.104946 3.04334e-20)
(1.11108 0.489851 -2.73822e-20)
(1.30416 0.57951 -2.44123e-20)
(1.3296 0.6004 5.577e-20)
(1.28728 0.593333 -5.35367e-20)
(1.22494 0.578144 -4.03777e-21)
(1.15895 0.560961 -1.24375e-19)
(1.08971 0.540373 -5.93275e-20)
(1.01738 0.514122 -1.56897e-19)
(0.942841 0.47983 2.52866e-22)
(0.87698 0.441177 -2.94754e-19)
(0.827641 0.405744 2.45364e-19)
(0.791137 0.375656 -1.47705e-19)
(0.761652 0.349801 1.76727e-19)
(0.72655 0.323818 0)
(0.657605 0.286854 -1.25283e-19)
(0.526976 0.22761 -6.93749e-22)
(0.347601 0.150071 -3.51063e-19)
(0.164182 0.0709445 -5.16345e-20)
(0.024235 0.0105146 0)
(0.233105 0.114234 0)
(1.10131 0.535718 -2.59001e-20)
(1.29408 0.634221 -4.08773e-20)
(1.3176 0.655876 -5.48897e-20)
(1.27474 0.647183 -6.35914e-20)
(1.21239 0.629755 0)
(1.14554 0.609917 -5.86594e-20)
(1.07467 0.586292 -1.14828e-21)
(1.00006 0.556633 3.35831e-19)
(0.922709 0.518522 -4.88895e-20)
(0.854165 0.476135 -2.12377e-19)
(0.802942 0.43768 1.27999e-19)
(0.765331 0.405324 -2.05041e-21)
(0.735444 0.377815 1.87822e-19)
(0.700962 0.350201 1.15371e-19)
(0.634904 0.310763 -2.70181e-19)
(0.510338 0.247437 3.20756e-19)
(0.336767 0.162714 9.48376e-20)
(0.158529 0.0760011 3.91159e-19)
(0.0232467 0.0110652 -1.04719e-18)
(0.232102 0.123507 -7.98828e-22)
(1.09164 0.57933 -5.90857e-21)
(1.2833 0.686104 9.74791e-21)
(1.30449 0.708497 5.05178e-20)
(1.2611 0.698383 0)
(1.19873 0.679035 -5.78334e-20)
(1.13115 0.65685 1.94487e-19)
(1.05883 0.630489 1.3074e-19)
(0.982129 0.59773 0)
(0.902133 0.556083 -6.99708e-19)
(0.831037 0.510081 5.72618e-19)
(0.778049 0.46852 0)
(0.739486 0.433675 1.71643e-19)
(0.709308 0.404174 -2.02325e-21)
(0.675299 0.374555 -3.6785e-19)
(0.611234 0.332127 1.44166e-19)
(0.490783 0.26378 0)
(0.321845 0.171852 5.10781e-19)
(0.149297 0.078616 0)
(0.0212853 0.0110257 -4.94023e-19)
(0.231854 0.132805 4.1914e-21)
(1.08245 0.620785 1.5362e-21)
(1.27187 0.735174 1.21319e-20)
(1.29078 0.758245 0)
(1.24682 0.746897 -6.01294e-20)
(1.18439 0.72589 0)
(1.11616 0.701636 -1.95517e-19)
(1.04254 0.672853 -6.23662e-20)
(0.963896 0.637333 5.98516e-20)
(0.881369 0.592458 -3.45766e-19)
(0.807734 0.542985 5.93424e-20)
(0.752979 0.498232 0)
(0.713484 0.460661 -3.66272e-19)
(0.683043 0.428858 2.05736e-21)
(0.649311 0.396823 0)
(0.586398 0.350814 2.14421e-21)
(0.468525 0.27663 4.651e-19)
(0.303323 0.177273 -4.40846e-19)
(0.137382 0.0788151 1.29946e-19)
(0.0186854 0.0104723 0)
(0.231988 0.141993 0)
(1.07381 0.660225 7.80549e-21)
(1.26016 0.781611 -3.7295e-21)
(1.27683 0.80517 -2.35267e-21)
(1.23224 0.79274 -2.50988e-20)
(1.16973 0.770293 -1.29854e-19)
(1.10091 0.744233 7.22163e-20)
(1.02609 0.713336 -7.20422e-20)
(0.945637 0.675393 2.64915e-19)
(0.860627 0.627632 -5.51723e-19)
(0.784384 0.574866 -3.45887e-21)
(0.727739 0.526854 -1.61604e-19)
(0.687239 0.486324 5.92871e-19)
(0.656488 0.451903 -2.40991e-21)
(0.622818 0.417028 -2.84313e-19)
(0.560286 0.366763 -5.08317e-19)
(0.44386 0.286004 0)
(0.281857 0.179164 0)
(0.123392 0.0766643 1.40312e-19)
(0.0157118 0.00943594 -8.21451e-20)
(0.23267 0.151168 1.28662e-20)
(1.06569 0.697529 -2.41932e-20)
(1.24843 0.825476 3.63316e-21)
(1.26288 0.84938 0)
(1.21765 0.835968 -1.55271e-21)
(1.15502 0.812263 -1.25097e-19)
(1.08566 0.784643 1.78513e-19)
(1.00975 0.751926 2.87919e-19)
(0.927581 0.711905 3.45324e-19)
(0.840111 0.661616 -4.51106e-19)
(0.761136 0.605789 -4.89792e-19)
(0.702383 0.554496 4.31827e-19)
(0.6607 0.51077 0)
(0.629529 0.473373 -1.2908e-19)
(0.595725 0.435193 -3.07342e-19)
(0.532925 0.379948 -3.64654e-19)
(0.416843 0.291758 -4.33395e-19)
(0.258035 0.177537 1.28216e-19)
(0.107825 0.0722019 -7.54339e-20)
(0.012415 0.00795939 2.95602e-22)
(0.233392 0.160235 0)
(1.05819 0.733172 0)
(1.2368 0.866886 2.56935e-21)
(1.24907 0.890986 0)
(1.20323 0.876678 7.08986e-20)
(1.14046 0.851865 9.01364e-20)
(1.07061 0.822896 0)
(0.99371 0.788638 3.49607e-20)
(0.909925 0.746871 5.77453e-19)
(0.820015 0.694433 -1.03542e-18)
(0.738149 0.63584 0)
(0.676991 0.581311 -2.77233e-19)
(0.633827 0.534147 -2.9306e-21)
(0.602048 0.493364 -2.38287e-21)
(0.567923 0.451286 3.28114e-19)
(0.50433 0.390212 -3.87825e-22)
(0.387644 0.293766 -9.32285e-19)
(0.232135 0.172316 2.75758e-19)
(0.0916661 0.0659054 8.14969e-20)
(0.00913024 0.00622668 0)
(0.234112 0.169124 -6.92619e-20)
(1.05102 0.767143 -2.67806e-20)
(1.22531 0.905883 -1.68379e-20)
(1.23555 0.930099 -3.98397e-20)
(1.18912 0.914947 1.10044e-19)
(1.12622 0.889169 0)
(1.05594 0.859046 1.10912e-19)
(0.978137 0.823504 -7.70363e-20)
(0.89283 0.780314 3.8582e-21)
(0.800514 0.726115 7.57936e-20)
(0.715584 0.665106 6.32834e-19)
(0.651651 0.60747 -9.73355e-20)
(0.606583 0.556673 -3.64129e-19)
(0.573885 0.511984 -1.49964e-19)
(0.539242 0.465195 1.78355e-19)
(0.474528 0.397258 -2.18576e-22)
(0.357018 0.291861 2.5128e-19)
(0.20536 0.163885 -5.92925e-19)
(0.0755751 0.0582111 7.01126e-19)
(0.00600837 0.00436628 1.02199e-19)
(0.23466 0.177711 2.88992e-20)
(1.04418 0.799528 -1.69125e-20)
(1.21406 0.942583 6.1163e-21)
(1.22238 0.966838 -9.13434e-21)
(1.17543 0.95089 -1.67554e-20)
(1.1124 0.924255 -1.61903e-19)
(1.04176 0.893154 3.41139e-20)
(0.963153 0.856552 -3.22325e-19)
(0.876431 0.812236 -6.37989e-19)
(0.78175 0.756668 -6.17127e-19)
(0.6936 0.693661 0)
(0.626481 0.633147 -4.24998e-19)
(0.578986 0.578612 5.23308e-19)
(0.544835 0.529408 0)
(0.509378 0.476752 -3.81512e-19)
(0.443491 0.400584 2.28334e-19)
(0.325515 0.285669 -2.69819e-19)
(0.178874 0.152517 -3.19148e-19)
(0.0604652 0.0496681 -5.64672e-19)
(0.00323382 0.00253407 -4.40223e-19)
(0.235489 0.186132 -3.52493e-20)
(1.03753 0.83029 1.81498e-20)
(1.20308 0.977063 3.65341e-20)
(1.20961 1.00129 -3.20463e-21)
(1.16221 0.984601 3.93035e-20)
(1.0991 0.957218 -9.32198e-20)
(1.02815 0.925279 1.12196e-19)
(0.948847 0.887833 -3.33247e-19)
(0.860815 0.842667 -3.77932e-19)
(0.763844 0.786108 6.45951e-19)
(0.672349 0.721562 1.38653e-18)
(0.601648 0.65851 0)
(0.55108 0.60026 0)
(0.514648 0.545941 -1.72418e-19)
(0.477782 0.485811 0)
(0.410907 0.399307 4.91394e-19)
(0.293953 0.274249 5.80798e-19)
(0.154454 0.13821 0)
(0.0476506 0.0408789 0)
(0.000986922 0.000930313 4.7311e-19)
(0.235928 0.194078 4.29535e-20)
(1.0311 0.859419 3.38916e-20)
(1.19242 1.00944 2.79509e-20)
(1.1973 1.03357 -9.13265e-21)
(1.14952 1.01619 3.44813e-20)
(1.08635 0.988139 1.0392e-19)
(1.01519 0.955491 -1.55212e-19)
(0.93528 0.917383 7.08312e-23)
(0.846059 0.871616 -4.99117e-21)
(0.746892 0.814433 -5.51965e-21)
(0.652001 0.748845 7.13336e-19)
(0.577339 0.683687 0)
(0.523001 0.621928 5.26988e-19)
(0.483114 0.562037 3.67136e-19)
(0.443586 0.49253 8.88703e-19)
(0.375767 0.392374 2.6415e-19)
(0.262903 0.255419 -3.13249e-19)
(0.13551 0.119091 -1.83967e-19)
(0.0416945 0.0313402 0)
(0.000688339 0.000146624 5.0833e-19)
(0.236633 0.202002 -1.02732e-19)
(1.02484 0.88702 0)
(1.18205 1.03976 3.94496e-20)
(1.18543 1.06377 -1.25085e-20)
(1.13739 1.04574 -2.52067e-20)
(1.0742 1.01711 -1.24967e-19)
(1.0029 0.983856 3.09136e-19)
(0.922487 0.945244 -2.67721e-20)
(0.832204 0.899096 0)
(0.730973 0.841616 -7.13395e-19)
(0.632705 0.775506 -1.5494e-18)
(0.553772 0.708778 6.25434e-20)
(0.495004 0.643892 7.23539e-19)
(0.450188 0.578293 0)
(0.405756 0.497665 5.98245e-19)
(0.335761 0.379393 0)
(0.230118 0.225329 0)
(0.125009 0.0842325 -1.9934e-19)
(0.0616889 0.0098943 0)
(0.0265632 0.0107322 1.36247e-19)
(0.236934 0.2093 -1.19779e-19)
(1.01874 0.913414 0)
(1.17198 1.06822 7.10613e-20)
(1.17398 1.09212 0)
(1.12577 1.07352 8.29128e-21)
(1.06257 1.04442 0)
(0.991215 1.01069 1.65922e-20)
(0.910374 0.971761 4.59883e-20)
(0.819136 0.925479 4.72262e-20)
(0.71594 0.868053 -7.83119e-19)
(0.614319 0.801983 4.67488e-20)
(0.530793 0.734368 5.00651e-19)
(0.466845 0.666811 7.04453e-19)
(0.41527 0.595653 9.46571e-20)
(0.362558 0.502955 4.67516e-19)
(0.286486 0.362184 0)
(0.184212 0.183162 6.61381e-19)
(0.0942012 0.0246669 -3.87593e-19)
(0.0442634 0.0444171 4.4943e-19)
(-0.0689061 0.42734 -5.30387e-19)
(0.237193 0.21637 1.02078e-19)
(1.01254 0.938394 1.49701e-19)
(1.16211 1.09515 0)
(1.16279 1.11904 5.14856e-21)
(1.11447 1.10009 -1.13033e-20)
(1.05121 1.07074 1.83893e-19)
(0.979842 1.03679 1.1151e-19)
(0.898549 0.997877 0)
(0.806342 0.951857 3.17214e-19)
(0.701142 0.895045 -4.13393e-20)
(0.595959 0.829737 0)
(0.507282 0.762218 0)
(0.437088 0.692465 6.28525e-19)
(0.376753 0.615694 -2.91408e-19)
(0.311127 0.51129 -4.71397e-19)
(0.223236 0.346131 0)
(0.106442 0.170236 3.32967e-19)
(0.00766063 0.434753 -3.85985e-19)
(0.0365177 1.87028 -2.1297e-19)
(0.0666569 2.80073 -2.71161e-19)
(0.237262 0.222577 -8.01332e-20)
(1.00645 0.962136 -1.98577e-19)
(1.15243 1.12051 4.6041e-20)
(1.15185 1.14438 2.68309e-20)
(1.10352 1.12524 0)
(1.04018 1.0958 1.16229e-19)
(0.968963 1.06185 1.58475e-19)
(0.88719 1.02316 -2.26478e-20)
(0.794082 0.977714 4.70512e-20)
(0.686954 0.921978 7.47428e-19)
(0.578224 0.858094 7.81559e-19)
(0.484215 0.791896 5.57756e-19)
(0.406787 0.720587 6.29406e-19)
(0.336621 0.637089 -6.79515e-19)
(0.257494 0.525508 -7.08257e-19)
(0.147715 0.373569 0)
(0.0523857 0.825104 0)
(0.10857 2.53797 1.84571e-19)
(0.109743 3.19272 0)
(0.112658 3.38469 4.4611e-19)
(0.239874 0.228212 0)
(1.00104 0.984809 0)
(1.14275 1.14418 0)
(1.14092 1.16793 1.01735e-20)
(1.09262 1.14872 -5.37671e-21)
(1.02925 1.11946 7.08243e-20)
(0.958473 1.08576 1.04143e-19)
(0.876254 1.04752 -2.23325e-20)
(0.782322 1.00292 4.00129e-19)
(0.673406 0.948716 -9.88846e-21)
(0.561264 0.886944 1.54361e-18)
(0.461967 0.82324 -6.38492e-20)
(0.376385 0.752031 7.619e-20)
(0.297245 0.657072 9.75987e-20)
(0.196098 0.547251 -1.67603e-21)
(0.11309 0.958003 1.7948e-21)
(0.15012 2.69382 -9.55429e-19)
(0.161008 3.28691 -3.62745e-19)
(0.148129 3.42577 1.90164e-19)
(0.133508 3.44885 -2.12569e-19)
(0.157391 0.184477 5.01348e-20)
(0.990332 1.0092 0)
(1.13282 1.16639 -1.04239e-19)
(1.13057 1.19014 -8.54196e-20)
(1.08253 1.17132 2.13627e-20)
(1.01931 1.14236 -6.84799e-20)
(0.948268 1.10864 -1.10178e-19)
(0.865844 1.07107 2.60027e-19)
(0.771258 1.0276 -3.30029e-19)
(0.660833 0.975354 0)
(0.545536 0.916407 7.59728e-19)
(0.441135 0.856075 -4.54075e-19)
(0.346413 0.78974 0)
(0.258183 0.679672 9.06136e-20)
(0.164614 0.808922 2.16392e-19)
(0.165376 2.45298 -2.58305e-19)
(0.228582 3.32125 2.91677e-19)
(0.206098 3.44167 1.58844e-19)
(0.170942 3.46371 1.80844e-19)
(0.147682 3.47418 2.90498e-19)
(0.283217 0.267092 -8.91181e-20)
(0.975507 1.01924 0)
(1.11496 1.1915 1.19741e-19)
(1.11602 1.22263 1.08987e-19)
(1.06633 1.20458 -4.49656e-20)
(1.00253 1.17614 4.31412e-20)
(0.930592 1.14387 1.21005e-19)
(0.847507 1.10743 2.01379e-20)
(0.7516 1.06598 3.20062e-19)
(0.638525 1.01733 6.52719e-19)
(0.518377 0.964287 4.33045e-20)
(0.405965 0.911054 4.03864e-19)
(0.294083 0.85189 7.13404e-20)
(0.222672 0.974156 -8.91489e-20)
(0.239201 2.30063 -2.05122e-19)
(0.303717 3.32552 2.00524e-19)
(0.287843 3.47441 -2.23982e-19)
(0.250534 3.49639 -1.30244e-19)
(0.211949 3.52393 -1.13168e-19)
(0.158978 3.51719 -1.32815e-20)
(0.271093 0.263888 0)
(0.973319 1.04189 3.94661e-20)
(1.10716 1.21482 -2.62397e-20)
(1.10626 1.2459 -1.46834e-20)
(1.0562 1.22772 -4.06071e-20)
(0.992437 1.19954 -3.5509e-20)
(0.92014 1.16744 -6.94121e-20)
(0.836907 1.13177 1.83973e-20)
(0.740612 1.09173 -3.36331e-19)
(0.626537 1.04575 -1.43134e-20)
(0.504234 0.997249 -1.37999e-18)
(0.388333 0.949817 5.7304e-20)
(0.281716 0.919297 -6.75639e-20)
(0.262713 1.47023 -8.29495e-20)
(0.340495 3.08088 1.77789e-20)
(0.364198 3.47209 8.81943e-22)
(0.323029 3.53192 3.33405e-19)
(0.284616 3.55631 1.66563e-19)
(0.234217 3.58029 -4.77393e-20)
(0.173377 3.57587 -6.50934e-20)
(0.254563 0.262124 1.0451e-19)
(0.969523 1.06717 2.74346e-19)
(1.0989 1.24025 -7.60985e-20)
(1.09594 1.2706 -5.55546e-20)
(1.04559 1.25221 0)
(0.981933 1.22408 -1.52296e-20)
(0.909565 1.19223 -8.51815e-20)
(0.826464 1.1573 1.65484e-20)
(0.730101 1.11874 -3.71386e-20)
(0.615537 1.07563 -5.99067e-19)
(0.491849 1.03194 -6.40462e-19)
(0.374219 0.991189 -4.75161e-19)
(0.283983 1.04602 -5.09126e-19)
(0.331257 2.15076 5.25509e-19)
(0.427983 3.37526 4.46161e-19)
(0.409314 3.53331 0)
(0.36208 3.57796 0)
(0.324394 3.62017 -3.78382e-20)
(0.270162 3.68142 0)
(0.185507 3.65601 -4.87494e-20)
(0.243516 0.263786 -1.61656e-19)
(0.963722 1.09351 -2.39302e-19)
(1.08924 1.26686 0)
(1.08434 1.29614 6.1471e-21)
(1.03379 1.27732 -6.19785e-20)
(0.970343 1.2491 3.72958e-21)
(0.898234 1.21751 -4.56134e-20)
(0.815469 1.18323 1.14037e-20)
(0.719275 1.14606 -2.46475e-19)
(0.604611 1.10575 3.07309e-20)
(0.480336 1.06701 0)
(0.363558 1.03578 0)
(0.310589 1.28114 -4.69127e-19)
(0.415286 2.82979 1.91801e-19)
(0.501458 3.48919 2.50043e-19)
(0.455644 3.56755 0)
(0.415354 3.62879 -2.55482e-20)
(0.377596 3.69253 -3.24072e-20)