/*--------------------------------*- C++ -*----------------------------------*\
  =========                 |
  \\      /  F ield         | OpenFOAM: The Open Source CFD Toolbox
   \\    /   O peration     | Website:  https://openfoam.org
    \\  /    A nd           | Version:  9
     \\/     M anipulation  |
\*---------------------------------------------------------------------------*/
FoamFile
{
    format      ascii;
    class       volScalarField;
    location    "62";
    object      p;
}
// * * * * * * * * * * * * * * * * * * * * * * * * * * * * * * * * * * * * * //

dimensions      [0 2 -2 0 0 0 0];

internalField   nonuniform List<scalar> 
8800
(
0.91894
0.871154
0.832466
0.803473
0.782612
0.767787
0.757199
0.749731
0.744929
0.742897
0.744192
0.748405
0.755067
0.764395
0.777183
0.794923
0.819704
0.853647
0.896199
0.954901
0.750186
0.757865
0.765343
0.768652
0.767151
0.762078
0.755598
0.749531
0.744823
0.742002
0.74175
0.744282
0.748792
0.754752
0.761532
0.767819
0.771464
0.77073
0.765314
0.756626
0.728585
0.734745
0.738874
0.741821
0.743874
0.744484
0.743386
0.741294
0.739298
0.738418
0.73941
0.741817
0.744634
0.746828
0.747445
0.746252
0.743915
0.740526
0.735969
0.732208
0.722769
0.72542
0.728173
0.730579
0.732217
0.733385
0.734136
0.734267
0.733994
0.733974
0.734759
0.735957
0.736816
0.736896
0.736297
0.735213
0.733403
0.730836
0.728435
0.726931
0.71738
0.718805
0.720585
0.72262
0.724408
0.725755
0.726755
0.727568
0.728207
0.728805
0.729494
0.73002
0.730143
0.729872
0.729187
0.727946
0.726257
0.724414
0.723109
0.722277
0.712292
0.713213
0.714456
0.716025
0.717661
0.719193
0.72049
0.721575
0.722567
0.723499
0.724231
0.724594
0.724578
0.724158
0.723291
0.722101
0.720782
0.719527
0.718707
0.718155
0.707372
0.708042
0.709006
0.710311
0.711724
0.71319
0.714642
0.715984
0.717213
0.718365
0.719236
0.719645
0.719591
0.719105
0.718315
0.71738
0.716376
0.715459
0.714877
0.714471
0.702572
0.703089
0.703873
0.705006
0.706289
0.707671
0.70913
0.710624
0.712087
0.713474
0.714537
0.715055
0.715066
0.714708
0.714125
0.713414
0.712652
0.711975
0.711544
0.711226
0.69782
0.698231
0.698888
0.699897
0.701108
0.702444
0.703904
0.705484
0.707144
0.708798
0.710109
0.710822
0.711028
0.710891
0.710531
0.710032
0.709476
0.708992
0.708672
0.708414
0.69303
0.693365
0.693933
0.694863
0.696026
0.697347
0.698844
0.700524
0.702373
0.704319
0.705952
0.706962
0.707447
0.707563
0.707434
0.707161
0.706798
0.706475
0.70624
0.706023
0.688114
0.688391
0.688898
0.689782
0.690927
0.692274
0.693845
0.695666
0.697746
0.70003
0.702068
0.70346
0.70428
0.704686
0.704811
0.704764
0.704596
0.704413
0.704246
0.704058
0.682981
0.683214
0.683682
0.684551
0.685717
0.687133
0.688821
0.690837
0.693213
0.695917
0.69845
0.700302
0.701513
0.702254
0.702662
0.702847
0.702875
0.702823
0.702711
0.702543
0.677541
0.677739
0.678187
0.679069
0.6803
0.681828
0.683688
0.685967
0.68872
0.691949
0.695083
0.697482
0.699151
0.700273
0.700998
0.701433
0.701673
0.701742
0.701677
0.701524
0.671691
0.67186
0.672306
0.673232
0.674567
0.676259
0.678358
0.680979
0.68421
0.68809
0.691952
0.695004
0.697212
0.698772
0.699859
0.700595
0.701044
0.701231
0.701206
0.701061
0.665313
0.665459
0.665917
0.666915
0.668402
0.670317
0.672732
0.67579
0.679623
0.684302
0.689046
0.692877
0.695725
0.697801
0.699299
0.70036
0.701051
0.701362
0.701374
0.701233
0.658269
0.65839
0.658876
0.659978
0.661667
0.663875
0.666695
0.670308
0.67489
0.680547
0.686355
0.691118
0.694721
0.697407
0.699392
0.700832
0.701788
0.702224
0.70227
0.702129
0.650376
0.650476
0.651005
0.652247
0.654197
0.656777
0.660114
0.664425
0.669933
0.676784
0.683876
0.68975
0.694245
0.697647
0.700214
0.702093
0.703349
0.703919
0.703996
0.703852
0.641408
0.641509
0.642093
0.643491
0.645773
0.648838
0.652831
0.658019
0.664675
0.672984
0.681616
0.688807
0.694356
0.698598
0.701855
0.704249
0.705841
0.706552
0.706659
0.706506
0.631053
0.631134
0.631809
0.633434
0.63615
0.639834
0.644656
0.650945
0.659027
0.669114
0.679589
0.688332
0.69512
0.70035
0.704398
0.707398
0.709371
0.71023
0.710362
0.710199
0.618938
0.619005
0.619779
0.621715
0.624989
0.62947
0.635354
0.643039
0.652897
0.665148
0.677818
0.688379
0.696602
0.702987
0.707948
0.711655
0.714042
0.715049
0.715201
0.715023
0.604509
0.604565
0.605481
0.607834
0.611846
0.617375
0.624642
0.634115
0.646195
0.661076
0.676336
0.689006
0.698872
0.706579
0.712606
0.717099
0.719928
0.721077
0.721239
0.721044
0.587002
0.587047
0.588176
0.591113
0.596136
0.603083
0.612194
0.623995
0.63887
0.656934
0.675219
0.690293
0.702016
0.711211
0.718415
0.723786
0.727063
0.728332
0.728492
0.728276
0.565257
0.5653
0.566776
0.570594
0.577074
0.586016
0.597654
0.612528
0.630927
0.652812
0.674573
0.692328
0.7061
0.716939
0.725413
0.731723
0.735415
0.736762
0.7369
0.736663
0.537532
0.537594
0.53966
0.5449
0.553642
0.565517
0.580718
0.599675
0.622473
0.648867
0.674544
0.695214
0.711186
0.723775
0.733618
0.740836
0.744855
0.746211
0.746307
0.746049
0.500796
0.500958
0.504234
0.512094
0.524649
0.541001
0.561278
0.585595
0.613779
0.645371
0.675332
0.699077
0.717326
0.731718
0.742944
0.750953
0.75514
0.75641
0.75644
0.756167
0.449235
0.450216
0.456726
0.469969
0.489152
0.512432
0.539708
0.5708
0.605329
0.642692
0.677168
0.704039
0.724564
0.740686
0.753217
0.761783
0.765904
0.766985
0.766939
0.766657
0.373923
0.381206
0.396263
0.419584
0.448649
0.481206
0.517039
0.555933
0.597508
0.641128
0.680442
0.710659
0.733629
0.75164
0.765416
0.774343
0.778256
0.779132
0.779041
0.778794
0.292984
0.310214
0.334612
0.368659
0.407989
0.449957
0.494413
0.541295
0.5903
0.640856
0.685908
0.720281
0.746236
0.76652
0.781721
0.790708
0.794064
0.794663
0.794598
0.794439
0.225521
0.245814
0.277932
0.321092
0.369485
0.420314
0.473131
0.527856
0.584163
0.641465
0.691984
0.730234
0.758969
0.781144
0.79715
0.80585
0.808814
0.809348
0.809342
0.809231
0.170269
0.192219
0.229851
0.279451
0.335013
0.393319
0.453544
0.515473
0.578637
0.642364
0.698093
0.739996
0.771256
0.795087
0.811896
0.820664
0.823477
0.824052
0.824095
0.824005
0.124284
0.14741
0.18883
0.243546
0.30487
0.369349
0.435932
0.504263
0.573721
0.643484
0.704168
0.749547
0.783223
0.808702
0.82642
0.835496
0.838539
0.839015
0.839099
0.839019
0.085296
0.109082
0.15337
0.212131
0.278301
0.348036
0.420154
0.494198
0.569403
0.644792
0.710179
0.758901
0.794942
0.822045
0.840769
0.85041
0.853579
0.854081
0.854147
0.854108
0.0512784
0.0754925
0.122043
0.184146
0.254412
0.328724
0.405752
0.484944
0.565436
0.646107
0.715979
0.767928
0.806253
0.834973
0.854648
0.864901
0.868343
0.868898
0.868971
0.868958
0.0207311
0.0453204
0.0937136
0.15867
0.23247
0.310792
0.392222
0.476122
0.561538
0.647216
0.721387
0.776439
0.816955
0.847197
0.867831
0.878633
0.882384
0.883055
0.883126
0.883123
-0.0073171
0.0176084
0.0675764
0.134993
0.211899
0.29378
0.379179
0.4674
0.557426
0.647876
0.726205
0.78426
0.826866
0.858519
0.880056
0.89137
0.895377
0.896177
0.896245
0.896245
-0.0336725
-0.00836425
0.0430437
0.112591
0.192272
0.277329
0.366314
0.458511
0.552868
0.647908
0.730315
0.791308
0.835926
0.868919
0.891203
0.902905
0.907115
0.907974
0.908015
0.907993
-0.0587147
-0.0330175
0.019641
0.0911184
0.173269
0.261175
0.353412
0.449278
0.547714
0.647194
0.733635
0.797559
0.844142
0.878357
0.901214
0.913224
0.917541
0.918438
0.918459
0.918415
-0.0828728
-0.0566856
-0.00299599
0.0703284
0.154675
0.245138
0.340333
0.439577
0.541847
0.645625
0.736106
0.803019
0.851564
0.88692
0.910289
0.922406
0.926735
0.927643
0.927629
0.927564
-0.106283
-0.0796564
-0.0248993
0.0500488
0.136359
0.229116
0.326984
0.429331
0.535192
0.643133
0.73769
0.807711
0.858304
0.89477
0.918502
0.930599
0.934891
0.935752
0.935716
0.935631
-0.129081
-0.101978
-0.0461953
0.0301836
0.118255
0.213059
0.313327
0.4185
0.527708
0.639662
0.738341
0.811661
0.864461
0.902076
0.926066
0.938005
0.942132
0.942913
0.942851
0.942746
-0.151405
-0.123762
-0.0669906
0.0106949
0.100324
0.196953
0.299369
0.407094
0.519385
0.635166
0.738009
0.814871
0.870155
0.909021
0.933148
0.944744
0.948583
0.949239
0.949134
0.949009
-0.173288
-0.145011
-0.08733
-0.00842658
0.0825914
0.180821
0.285142
0.395143
0.510238
0.629617
0.736632
0.81731
0.875459
0.915791
0.939974
0.950982
0.954334
0.954794
0.954649
0.954516
-0.194578
-0.165701
-0.107149
-0.0271621
0.0650793
0.164718
0.270697
0.382712
0.500315
0.623028
0.734136
0.81891
0.880383
0.922584
0.946861
0.956973
0.959526
0.959669
0.959479
0.959352
-0.215261
-0.185811
-0.12644
-0.0454696
0.0478382
0.148696
0.256118
0.36987
0.489687
0.615415
0.730466
0.819552
0.884866
0.929528
0.954239
0.963249
0.96448
0.963964
0.963696
0.96363
-0.235405
-0.205311
-0.145185
-0.0633281
0.030926
0.132833
0.241486
0.356716
0.478436
0.606835
0.725564
0.819084
0.888734
0.936584
0.962517
0.970712
0.970078
0.968087
0.967465
0.967694
-0.254846
-0.224181
-0.16333
-0.0806806
0.0143967
0.117207
0.226892
0.343355
0.466673
0.597373
0.719411
0.817322
0.891715
0.943435
0.971742
0.980405
0.978288
0.973902
0.97148
0.971215
-0.273679
-0.242415
-0.180897
-0.0975589
-0.0017833
0.101777
0.212282
0.329733
0.454335
0.586959
0.711873
0.81399
0.89351
0.949594
0.981327
0.992687
0.99159
0.984745
0.977001
0.963127
-0.291831
-0.259998
-0.198001
-0.114163
-0.0178933
0.0862186
0.197249
0.315381
0.440903
0.574979
0.702332
0.808342
0.893606
0.954418
0.989669
1.00555
1.00601
0.993074
0.972926
0.961777
-0.309133
-0.277073
-0.214451
-0.1303
-0.0335813
0.0708695
0.182016
0.300618
0.426673
0.561675
0.690825
0.799862
0.891117
0.956722
0.992656
1.0084
1.01121
0.987254
0.919699
0.889453
-0.324923
-0.294898
-0.229931
-0.145492
-0.0480529
0.0562278
0.166899
0.285669
0.411857
0.547164
0.677267
0.788212
0.884545
0.955772
0.985145
0.995776
0.983136
0.927966
0.858756
0.816222
-0.380026
-0.310622
-0.243948
-0.16087
-0.0629454
0.0408227
0.151827
0.270248
0.396079
0.530973
0.661023
0.772682
0.869893
0.947712
0.950863
0.951883
0.899928
0.828178
0.750976
0.70803
-0.341656
-0.325702
-0.264879
-0.180723
-0.0849977
0.018724
0.1287
0.246474
0.371321
0.504825
0.633019
0.743194
0.832893
0.915938
0.900582
0.784464
0.677452
0.603032
0.528926
0.558725
-0.372262
-0.343106
-0.281392
-0.198071
-0.10237
0.00123532
0.111478
0.228611
0.352387
0.484085
0.609501
0.715476
0.795511
0.839754
0.789588
0.63806
0.508479
0.415924
0.316538
0.365943
-0.395843
-0.36376
-0.300866
-0.217409
-0.121588
-0.0180865
0.0920671
0.208361
0.33073
0.460014
0.581688
0.681427
0.752499
0.761962
0.653363
0.478627
0.324457
0.204561
0.0727728
0.105256
-0.418901
-0.385306
-0.321249
-0.236875
-0.140979
-0.0376335
0.0719897
0.187314
0.308078
0.434559
0.551504
0.643403
0.698976
0.676643
0.516155
0.318322
0.126894
-0.0418531
-0.230844
-0.249643
-0.44137
-0.407334
-0.342396
-0.257249
-0.161221
-0.0581036
0.0508626
0.16509
0.283984
0.407255
0.518747
0.60268
0.638493
0.57957
0.385557
0.173759
-0.0444039
-0.234323
-0.476683
-0.773913
-0.464138
-0.4301
-0.364629
-0.279002
-0.182795
-0.079852
0.0285273
0.14162
0.258533
0.378321
0.484055
0.55934
0.573886
0.463687
0.271908
0.060797
-0.144401
-0.317394
-0.387284
-0.466304
-0.488157
-0.454057
-0.388293
-0.302445
-0.206192
-0.103517
0.00418167
0.115966
0.230577
0.346347
0.445892
0.509951
0.499365
0.35549
0.170908
-0.021178
-0.185017
-0.278598
-0.302858
-0.318724
-0.513733
-0.479508
-0.413557
-0.327652
-0.231541
-0.129309
-0.022531
0.0876427
0.199529
0.310632
0.403451
0.453243
0.424879
0.255046
0.0794336
-0.0875739
-0.215066
-0.254469
-0.267329
-0.268637
-0.541066
-0.506627
-0.440487
-0.354621
-0.258794
-0.157232
-0.0516292
0.0566005
0.165328
0.271182
0.356371
0.391475
0.343601
0.16235
-0.00413687
-0.153694
-0.230727
-0.247796
-0.249062
-0.248849
-0.570218
-0.53548
-0.46911
-0.383351
-0.287967
-0.187276
-0.0831162
0.0228269
0.127991
0.228074
0.304746
0.328302
0.243977
0.0777395
-0.0802684
-0.20359
-0.240596
-0.238969
-0.238021
-0.237393
-0.600905
-0.565886
-0.499322
-0.413758
-0.318975
-0.219386
-0.116961
-0.0136499
0.0875584
0.181425
0.249436
0.25592
0.153326
-0.000747298
-0.140441
-0.216911
-0.227376
-0.230081
-0.230787
-0.230503
-0.63258
-0.597407
-0.530871
-0.445614
-0.351635
-0.25341
-0.153012
-0.0526971
0.0442197
0.131598
0.190977
0.182154
0.0717234
-0.0670834
-0.183775
-0.215685
-0.224311
-0.22588
-0.225722
-0.225457
-0.664778
-0.629491
-0.563312
-0.478529
-0.385607
-0.289029
-0.190993
-0.0940264
-0.0017415
0.0792991
0.128424
0.112227
-0.00402691
-0.121042
-0.212945
-0.229984
-0.222362
-0.221834
-0.221965
-0.221784
-0.696606
-0.661418
-0.595772
-0.511915
-0.420352
-0.325776
-0.230463
-0.13716
-0.0498594
0.025182
0.0645991
0.04824
-0.0713036
-0.163707
-0.212973
-0.224774
-0.222516
-0.221144
-0.220535
-0.220302
-0.726507
-0.692016
-0.627287
-0.544856
-0.455114
-0.362964
-0.270779
-0.181426
-0.0993255
-0.03014
0.00574653
-0.0220489
-0.127619
-0.208915
-0.205761
-0.221765
-0.224253
-0.221451
-0.220207
-0.219637
-0.75288
-0.719473
-0.656732
-0.576174
-0.488866
-0.399676
-0.311094
-0.225997
-0.149012
-0.0857839
-0.049848
-0.0879588
-0.175081
-0.248331
-0.261663
-0.244354
-0.232148
-0.226203
-0.223936
-0.222888
-0.773603
-0.741924
-0.682068
-0.604463
-0.520341
-0.434785
-0.350347
-0.269883
-0.197823
-0.140349
-0.106141
-0.137609
-0.202885
-0.298971
-0.333781
-0.277514
-0.24685
-0.237873
-0.234243
-0.232396
-0.786451
-0.75748
-0.70138
-0.627858
-0.548052
-0.46699
-0.387364
-0.311929
-0.24477
-0.192202
-0.158904
-0.172027
-0.185785
-0.248522
-0.24615
-0.245904
-0.24918
-0.248634
-0.246241
-0.245805
-0.788789
-0.763882
-0.712727
-0.64455
-0.570315
-0.494912
-0.420854
-0.350947
-0.288847
-0.24051
-0.201505
-0.193694
-0.128716
-0.0818843
-0.129275
-0.188891
-0.221844
-0.233299
-0.238111
-0.239901
-0.778405
-0.758365
-0.713926
-0.652931
-0.585654
-0.517049
-0.4495
-0.385686
-0.329249
-0.285049
-0.238516
-0.230887
-0.145897
0.0287826
-0.0810559
-0.193393
-0.242254
-0.260898
-0.268318
-0.271116
-0.753318
-0.738261
-0.703157
-0.651747
-0.593039
-0.532362
-0.472088
-0.414802
-0.364647
-0.326276
-0.283242
-0.323826
-0.401058
-0.448749
-0.46637
-0.42941
-0.38963
-0.371463
-0.365919
-0.365221
-0.716043
-0.706355
-0.681207
-0.641112
-0.592378
-0.540469
-0.487797
-0.437065
-0.392761
-0.36186
-0.346023
-0.446141
-0.71957
-1.10064
-1.07277
-0.717528
-0.498496
-0.423463
-0.402922
-0.396481
-0.673243
-0.667776
-0.652859
-0.62375
-0.58547
-0.542002
-0.496368
-0.451403
-0.411335
-0.383918
-0.368639
-0.395325
-0.324378
-0.265874
-0.177378
-0.143429
-0.181157
-0.210573
-0.210946
-0.20401
-0.634587
-0.631317
-0.624197
-0.604953
-0.575197
-0.538596
-0.498797
-0.457167
-0.418019
-0.386008
-0.3717
-0.271044
-0.0566264
0.214406
0.340866
0.177071
0.0153424
-0.0681169
-0.0905764
-0.104041
-0.606491
-0.60448
-0.600831
-0.588935
-0.565423
-0.533501
-0.496761
-0.456347
-0.414279
-0.377504
-0.360821
-0.319031
-0.290718
-0.378518
-0.602793
-0.875221
-1.01748
-0.972432
-0.86696
-0.812139
-0.584726
-0.583937
-0.582713
-0.576833
-0.558897
-0.529732
-0.49306
-0.45064
-0.404865
-0.359615
-0.331778
-0.348615
-0.435537
-0.685528
-0.980855
-1.15207
-1.19336
-1.07668
-0.931945
-0.872094
-0.5721
-0.571799
-0.571206
-0.568561
-0.555602
-0.52751
-0.488603
-0.442491
-0.389975
-0.327065
-0.275649
-0.215796
-0.24521
-0.313462
-0.442334
-0.477359
-0.341172
-0.126006
0.0346178
0.10157
-0.563619
-0.563416
-0.562809
-0.561926
-0.554167
-0.527538
-0.485821
-0.434243
-0.370979
-0.297108
-0.2113
-0.0916766
0.0696696
0.264448
0.501789
0.745999
1.03062
1.25829
1.38315
1.42286
-0.559165
-0.55883
-0.557964
-0.557448
-0.553964
-0.530814
-0.485829
-0.427309
-0.356357
-0.268271
-0.154491
-0.0390325
0.192514
0.54504
0.975887
1.39725
1.73033
1.93754
2.03116
2.05567
-0.558739
-0.559072
-0.560041
-0.561375
-0.561012
-0.537907
-0.488922
-0.424975
-0.347075
-0.247219
-0.130295
-0.00664627
0.200073
0.585782
1.02195
1.41599
1.71515
1.88448
1.95426
1.97049
-0.555442
-0.556775
-0.560216
-0.565194
-0.565886
-0.542346
-0.494061
-0.429391
-0.34585
-0.242272
-0.126971
-0.00828658
0.138564
0.471059
0.835736
1.15604
1.387
1.51082
1.55933
1.56934
-0.560221
-0.559737
-0.552341
-0.536994
-0.524758
-0.524659
-0.501028
-0.440361
-0.35221
-0.245821
-0.135957
-0.0273401
0.0802539
0.323467
0.600411
0.83065
0.995838
1.08039
1.1122
1.11645
-0.601212
-0.596653
-0.576993
-0.541844
-0.522831
-0.536165
-0.529982
-0.46155
-0.364499
-0.254537
-0.149819
-0.0553716
0.028126
0.195171
0.382729
0.536308
0.644775
0.697619
0.7162
0.719908
-0.694095
-0.697182
-0.712928
-0.735669
-0.729184
-0.706009
-0.619874
-0.498565
-0.376769
-0.261322
-0.165181
-0.0853828
-0.0185167
0.0971275
0.216026
0.30463
0.361034
0.387489
0.397892
0.399206
-0.82868
-0.851071
-0.897286
-0.933076
-0.926961
-0.867761
-0.707022
-0.530313
-0.382017
-0.26417
-0.176998
-0.111546
-0.0573994
0.017177
0.0855761
0.130823
0.152416
0.161539
0.166496
0.1683
-0.858281
-0.879509
-0.917104
-0.945336
-0.939107
-0.868469
-0.693317
-0.510298
-0.362761
-0.252383
-0.180726
-0.134516
-0.0994441
-0.0416916
0.00495311
0.027685
0.0336505
0.0363362
0.0404574
0.042786
-0.680387
-0.702872
-0.739571
-0.772917
-0.77251
-0.699033
-0.556071
-0.41956
-0.306461
-0.221885
-0.170142
-0.145537
-0.127282
-0.0794158
-0.0391448
-0.0156428
-0.00242681
0.00514262
0.00907839
0.00980261
-0.34687
-0.36163
-0.389114
-0.420722
-0.434953
-0.409491
-0.350843
-0.283674
-0.223686
-0.173873
-0.145091
-0.140004
-0.134174
-0.0881666
-0.0482252
-0.0204127
-0.00318927
0.00546094
0.00964282
0.00994519
-0.0287227
-0.0361225
-0.0540037
-0.0826663
-0.115441
-0.137715
-0.14878
-0.146875
-0.134486
-0.116375
-0.10519
-0.107689
-0.103372
-0.0616627
-0.0263702
-0.00195448
0.0147357
0.0236723
0.0266438
0.0261077
0.162094
0.158345
0.145865
0.11954
0.0786903
0.0301981
-0.0109799
-0.0402739
-0.0551652
-0.0575894
-0.0539002
-0.0499577
-0.0373911
-0.012856
0.00620073
0.0197587
0.0299475
0.0358067
0.0372793
0.0365685
0.231386
0.229267
0.220273
0.198536
0.161577
0.115009
0.068911
0.0304408
0.00495165
-0.00561584
-0.00207914
0.0132579
0.0339276
0.0407346
0.0429603
0.0459599
0.0496845
0.0521685
0.0525213
0.0515229
0.234157
0.232754
0.226513
0.210858
0.183494
0.147494
0.108612
0.0733173
0.0473247
0.035614
0.0425545
0.0612843
0.0814076
0.0784545
0.0709585
0.0677095
0.0674232
0.0680642
0.0677409
0.0665713
0.210819
0.209962
0.205958
0.19565
0.177145
0.151827
0.122756
0.0949526
0.0733064
0.0635464
0.0707198
0.0884428
0.102787
0.0955145
0.0864767
0.0817883
0.0794032
0.0772902
0.0754281
0.0741394
0.180303
0.17984
0.177439
0.171017
0.159112
0.142203
0.121881
0.101651
0.0857453
0.0793929
0.0867734
0.100248
0.107205
0.0981095
0.0892111
0.0828303
0.0783391
0.0743145
0.0720223
0.0712478
0.149445
0.149239
0.14791
0.144091
0.136726
0.125891
0.112452
0.0987423
0.0880652
0.0849846
0.0933048
0.105238
0.108306
0.0985462
0.0893111
0.0822221
0.075556
0.0700646
0.067713
0.0673496
0.120484
0.120413
0.119682
0.117505
0.113105
0.106398
0.0978463
0.089019
0.0825356
0.0822623
0.0922582
0.106916
0.110875
0.0983036
0.087913
0.0806518
0.0749422
0.0703446
0.0687643
0.0684425
0.0935378
0.0935705
0.0932389
0.0921043
0.0897
0.0856281
0.0804432
0.0750165
0.071184
0.0719994
0.0815626
0.097794
0.105795
0.0911182
0.0804944
0.0754274
0.0727973
0.0715286
0.0708339
0.0703142
0.068623
0.0686862
0.068574
0.0680752
0.0668171
0.0646477
0.0616203
0.0582074
0.0556787
0.0551998
0.0585989
0.0663064
0.0715429
0.0643688
0.0603355
0.0616804
0.0638894
0.0652561
0.0650123
0.0642658
0.0455527
0.0456132
0.0456169
0.0454674
0.0449655
0.0439012
0.0422765
0.0401591
0.0380397
0.0350372
0.0281761
0.0142447
0.00854805
0.0129965
0.0263132
0.0378757
0.0444278
0.046992
0.0468795
0.046146
0.0242366
0.0242883
0.0243468
0.0243911
0.024288
0.0239362
0.02326
0.0223328
0.0204107
0.0171616
0.00264594
-0.0298479
-0.0470327
-0.0284958
-0.00307947
0.013189
0.0197012
0.0207817
0.0206913
0.0203481
0.00448954
0.00452865
0.00451087
0.00459169
0.00482559
0.00500074
0.004978
0.004757
0.00450747
0.00385386
0.00115623
-0.0099417
-0.023956
-0.0193569
-0.0075816
-0.00519508
-0.00452468
-0.00344238
-0.00105791
0.000282181
-0.00341672
0.163074
0.357293
0.526732
0.661878
0.768006
0.855598
0.930205
0.964299
0.941044
0.297863
0.418183
0.547561
0.659256
0.753259
0.830931
0.893804
0.938471
0.960832
0.972975
0.515705
0.598178
0.686577
0.764561
0.831582
0.887642
0.93224
0.964849
0.988462
1.00649
0.675828
0.734874
0.796149
0.853002
0.902406
0.944375
0.978869
1.00641
1.02914
1.04746
0.800781
0.843704
0.889496
0.933122
0.971676
1.00536
1.03422
1.05825
1.07859
1.09644
0.904797
0.937562
0.975561
1.01099
1.04353
1.07271
1.09823
1.11968
1.13751
1.15486
0.997156
1.02579
1.05968
1.09175
1.12165
1.14878
1.1725
1.19219
1.20768
1.22476
1.08563
1.1148
1.14876
1.18076
1.21034
1.2369
1.25974
1.27822
1.29158
1.30861
1.18088
1.21406
1.25068
1.28423
1.31426
1.34043
1.36237
1.37964
1.3915
1.4089
1.29583
1.33365
1.37227
1.40651
1.43584
1.46058
1.48094
1.49682
1.50829
1.52635
1.44075
1.47928
1.51541
1.54609
1.57176
1.59385
1.6129
1.62843
1.64085
1.65885
1.61581
1.64743
1.6736
1.69604
1.71601
1.73473
1.75245
1.76892
1.78427
1.80234
1.80442
1.82162
1.83665
1.85287
1.86878
1.88331
1.89651
1.91044
1.92798
1.94813
1.98613
1.99566
2.0072
2.01801
2.0273
2.03688
2.04766
2.05902
2.07038
2.08574
2.19336
2.19702
2.18208
2.16727
2.16099
2.16666
2.18514
2.21545
2.24763
2.27428
2.49968
2.36482
2.28818
2.24579
2.22837
2.23233
2.25973
2.31615
2.41876
2.64313
0.809537
0.807409
0.802926
0.794303
0.782081
0.769956
0.759732
0.751844
0.746238
0.742999
0.742663
0.745419
0.750537
0.757769
0.767163
0.778707
0.791361
0.802397
0.80851
0.811565
0.733986
0.739833
0.746167
0.750661
0.753134
0.752813
0.75008
0.746278
0.74278
0.740537
0.740409
0.742625
0.746302
0.750601
0.754414
0.756302
0.755369
0.751889
0.746727
0.740107
0.725553
0.727849
0.731254
0.734252
0.736329
0.737829
0.73859
0.738282
0.737269
0.736404
0.7366
0.738047
0.739877
0.741193
0.74138
0.740495
0.738949
0.736615
0.733354
0.730434
0.72003
0.721117
0.72295
0.72533
0.727357
0.728789
0.729815
0.730577
0.730992
0.731234
0.731749
0.732577
0.733191
0.733269
0.732864
0.732021
0.730556
0.728475
0.726391
0.725009
0.714812
0.715474
0.716583
0.71829
0.720075
0.721711
0.723014
0.72404
0.724939
0.725751
0.726507
0.727083
0.727294
0.72714
0.726582
0.725534
0.724111
0.722571
0.721256
0.720477
0.709816
0.710276
0.711063
0.712363
0.713854
0.715376
0.716848
0.718158
0.719312
0.720393
0.721339
0.721934
0.7221
0.721841
0.721154
0.720173
0.719053
0.717925
0.717013
0.716497
0.704963
0.705307
0.705919
0.706989
0.708287
0.709666
0.711113
0.712572
0.713964
0.715273
0.716419
0.717142
0.717344
0.717086
0.7165
0.715733
0.71489
0.714029
0.71336
0.712983
0.700198
0.700466
0.700959
0.70187
0.703043
0.704345
0.705749
0.707252
0.708814
0.710366
0.711755
0.712662
0.712992
0.712893
0.712516
0.711969
0.71133
0.710698
0.71021
0.709922
0.695439
0.695651
0.696062
0.696862
0.697955
0.69921
0.700605
0.702156
0.703852
0.705644
0.707322
0.708495
0.709067
0.709211
0.709066
0.708741
0.70831
0.70787
0.707523
0.707298
0.690596
0.690767
0.691119
0.691847
0.692894
0.694128
0.695552
0.697188
0.699042
0.701092
0.703117
0.70465
0.705548
0.705981
0.70609
0.705996
0.705778
0.705513
0.705281
0.705102
0.685583
0.685721
0.686032
0.686715
0.687746
0.689004
0.690495
0.692258
0.694326
0.696689
0.699138
0.701119
0.702408
0.703177
0.703574
0.703727
0.703721
0.703624
0.703491
0.703347
0.680309
0.68042
0.680703
0.681366
0.682415
0.683744
0.685347
0.687292
0.689638
0.692399
0.69537
0.69789
0.69964
0.700798
0.701523
0.701943
0.702156
0.70223
0.702184
0.702067
0.674677
0.674765
0.675032
0.6757
0.676804
0.678245
0.680014
0.682208
0.684913
0.688176
0.691788
0.694954
0.697251
0.698859
0.699952
0.700688
0.701147
0.701379
0.701409
0.701314
0.668579
0.668646
0.668906
0.669603
0.670799
0.672398
0.674398
0.676921
0.680082
0.683972
0.688366
0.692311
0.695256
0.697393
0.69891
0.699997
0.700726
0.701132
0.701236
0.701157
0.661885
0.661932
0.662194
0.662941
0.66427
0.666085
0.668388
0.671332
0.675071
0.679736
0.685081
0.689961
0.693678
0.69644
0.698454
0.699933
0.700978
0.701571
0.701746
0.70168
0.654441
0.65447
0.654737
0.655557
0.657063
0.659158
0.661849
0.665329
0.669791
0.675409
0.681909
0.687911
0.692544
0.696042
0.698648
0.700597
0.701995
0.70279
0.703036
0.702981
0.646048
0.646064
0.646335
0.647252
0.64899
0.651432
0.654625
0.658781
0.664145
0.670935
0.678835
0.686178
0.691896
0.696261
0.699563
0.702075
0.703875
0.704891
0.705209
0.705162
0.6364
0.636386
0.636716
0.637775
0.6398
0.642697
0.646526
0.651535
0.658024
0.666258
0.675851
0.684788
0.691787
0.69717
0.701289
0.70446
0.706725
0.707984
0.708374
0.70833
0.625205
0.625166
0.625541
0.626795
0.629192
0.632678
0.637317
0.643407
0.651307
0.661318
0.672952
0.683777
0.692271
0.698849
0.703928
0.707852
0.710653
0.712172
0.712632
0.712588
0.61198
0.611914
0.612368
0.613875
0.616759
0.621013
0.626701
0.634178
0.643857
0.656058
0.670141
0.683184
0.693413
0.701366
0.707561
0.712357
0.715755
0.717543
0.718065
0.718015
0.596074
0.595979
0.596559
0.598418
0.601954
0.607233
0.614315
0.623603
0.63555
0.650455
0.66746
0.683078
0.695286
0.7048
0.71227
0.718045
0.722093
0.724148
0.724717
0.724655
0.576546
0.576425
0.577206
0.579582
0.584035
0.590741
0.599724
0.611426
0.62629
0.64453
0.664986
0.683541
0.697975
0.70923
0.71809
0.724962
0.729684
0.731979
0.73257
0.732488
0.551976
0.551839
0.552955
0.556131
0.561972
0.570767
0.582447
0.597434
0.616066
0.638385
0.662853
0.684692
0.701553
0.714704
0.72506
0.733109
0.738471
0.740941
0.741518
0.741409
0.520054
0.519938
0.521667
0.526229
0.534375
0.546421
0.562056
0.581548
0.604999
0.632217
0.661249
0.686669
0.706107
0.721253
0.733191
0.7424
0.748291
0.750827
0.751342
0.751199
0.476622
0.476669
0.479743
0.487193
0.499609
0.516955
0.538446
0.564012
0.593466
0.626398
0.660464
0.68965
0.711727
0.728888
0.742381
0.752669
0.758856
0.76129
0.761694
0.761516
0.413895
0.415101
0.422614
0.436505
0.456724
0.482503
0.512238
0.545535
0.582094
0.621395
0.660777
0.693782
0.718452
0.737548
0.75246
0.763517
0.769711
0.771805
0.772041
0.771842
0.339536
0.341302
0.355679
0.379526
0.410677
0.446415
0.485143
0.526682
0.570845
0.617149
0.662665
0.700361
0.728348
0.749863
0.766441
0.778234
0.784238
0.786054
0.786252
0.786146
0.262825
0.269019
0.290247
0.324341
0.365899
0.411299
0.458978
0.508803
0.560653
0.614079
0.665905
0.708432
0.739816
0.763835
0.782266
0.794489
0.799892
0.801231
0.80136
0.801324
0.200069
0.208571
0.234364
0.275474
0.325186
0.378829
0.434584
0.492174
0.551372
0.611657
0.669525
0.716611
0.751143
0.77736
0.796974
0.809424
0.814685
0.815869
0.816004
0.816025
0.149026
0.158125
0.187466
0.233815
0.289684
0.349977
0.412565
0.477008
0.542905
0.609612
0.673224
0.724645
0.762131
0.790402
0.811336
0.824249
0.829309
0.830631
0.830856
0.830914
0.106318
0.115698
0.147487
0.197832
0.258757
0.324566
0.392947
0.463391
0.535334
0.607985
0.677011
0.732569
0.772896
0.803183
0.825409
0.838869
0.844276
0.845835
0.84608
0.846159
0.0695821
0.0790693
0.112693
0.166241
0.231346
0.301865
0.375306
0.451073
0.52849
0.606634
0.680769
0.740287
0.783371
0.81563
0.839173
0.853469
0.859317
0.861017
0.86129
0.861369
0.0371423
0.0466618
0.0816933
0.137946
0.206554
0.281134
0.359049
0.439605
0.522046
0.605328
0.684321
0.747643
0.793385
0.827534
0.852349
0.867461
0.873792
0.875653
0.875942
0.876012
0.00771211
0.0172671
0.0534531
0.112038
0.183649
0.261785
0.343682
0.428592
0.515682
0.603809
0.68745
0.75444
0.802732
0.838662
0.864693
0.880539
0.88739
0.889372
0.88967
0.889719
-0.019592
-0.00999444
0.027198
0.0878036
0.162086
0.243374
0.328836
0.417709
0.509114
0.601831
0.68997
0.760536
0.811295
0.848924
0.87604
0.89251
0.899788
0.901872
0.90215
0.902138
-0.0453389
-0.0356838
0.00245312
0.0647642
0.141456
0.225554
0.314226
0.406717
0.502137
0.599228
0.69176
0.765865
0.819033
0.858279
0.886371
0.903322
0.910839
0.913026
0.913309
0.913292
-0.0700272
-0.0602245
-0.0212305
0.0426339
0.121477
0.208084
0.299657
0.395455
0.494617
0.595877
0.69272
0.770387
0.825974
0.866762
0.895713
0.913026
0.920651
0.922836
0.923129
0.923084
-0.0939162
-0.0839016
-0.0441683
0.0212108
0.101965
0.190809
0.285
0.38382
0.486451
0.591686
0.692787
0.774081
0.832163
0.874492
0.904194
0.921711
0.929323
0.931485
0.931742
0.931679
-0.117116
-0.106899
-0.0664089
0.0003477
0.0828006
0.173654
0.27019
0.37175
0.477585
0.586587
0.691897
0.776943
0.837665
0.881605
0.911979
0.929571
0.937069
0.939137
0.939344
0.939254
-0.139802
-0.129293
-0.0880602
-0.0200391
0.0639291
0.15657
0.255199
0.35923
0.468003
0.580552
0.689994
0.778951
0.842546
0.888256
0.919278
0.936777
0.944019
0.945927
0.946074
0.945963
-0.161932
-0.151158
-0.109211
-0.0399997
0.0453374
0.139562
0.240053
0.346287
0.457718
0.573559
0.687031
0.780055
0.846852
0.894591
0.926271
0.943493
0.950288
0.951943
0.951998
0.951865
-0.183574
-0.172503
-0.129796
-0.0595229
0.0270383
0.122655
0.224784
0.33297
0.446773
0.565623
0.682964
0.780187
0.850571
0.900732
0.933217
0.949969
0.956001
0.957239
0.957185
0.957038
-0.204565
-0.193267
-0.149814
-0.07857
0.00907204
0.105914
0.209451
0.319343
0.435234
0.556794
0.677762
0.77926
0.853631
0.906743
0.940406
0.956607
0.961474
0.961962
0.961711
0.961565
-0.225047
-0.213413
-0.169258
-0.0971312
-0.00853399
0.0893752
0.194143
0.305483
0.423184
0.547144
0.671428
0.777166
0.855889
0.912567
0.948083
0.964016
0.967373
0.966445
0.965666
0.965517
-0.24486
-0.232918
-0.188102
-0.115165
-0.0257056
0.0731183
0.178936
0.291506
0.410726
0.536732
0.663993
0.773794
0.85714
0.917987
0.956239
0.972869
0.975037
0.971914
0.969526
0.968684
-0.264065
-0.251828
-0.206294
-0.132621
-0.0424095
0.0572105
0.163912
0.277488
0.397971
0.52569
0.655518
0.769032
0.857138
0.922616
0.964384
0.983293
0.986013
0.981349
0.974896
0.966695
-0.282583
-0.270101
-0.223929
-0.149657
-0.0588517
0.041385
0.148745
0.263044
0.384484
0.513535
0.645493
0.762352
0.85542
0.92615
0.971915
0.994683
1.00072
0.996062
0.985405
0.98043
-0.300367
-0.287661
-0.240991
-0.166247
-0.0750412
0.0256476
0.133446
0.248152
0.370217
0.500143
0.633711
0.753353
0.851181
0.927799
0.976871
1.00284
1.01119
1.01005
0.972063
0.920262
-0.31713
-0.30373
-0.257331
-0.18232
-0.0910793
0.00983981
0.117958
0.232923
0.355219
0.485563
0.620083
0.741764
0.84327
0.926922
0.976958
0.999005
1.00674
0.986925
0.930138
0.868097
-0.333191
-0.318923
-0.272852
-0.197188