/*--------------------------------*- C++ -*----------------------------------*\
  =========                 |
  \\      /  F ield         | OpenFOAM: The Open Source CFD Toolbox
   \\    /   O peration     | Website:  https://openfoam.org
    \\  /    A nd           | Version:  9
     \\/     M anipulation  |
\*---------------------------------------------------------------------------*/
FoamFile
{
    format      ascii;
    class       volScalarField;
    location    "4";
    object      p;
}
// * * * * * * * * * * * * * * * * * * * * * * * * * * * * * * * * * * * * * //

dimensions      [0 2 -2 0 0 0 0];

internalField   nonuniform List<scalar> 
8800
(
0.654771
0.607627
0.569967
0.542075
0.522354
0.508601
0.498963
0.492262
0.487922
0.485996
0.486844
0.490289
0.495962
0.504141
0.515723
0.532228
0.555805
0.588618
0.630087
0.688614
0.484775
0.493046
0.502242
0.506788
0.506637
0.503007
0.49784
0.492612
0.488308
0.485483
0.484965
0.487106
0.490957
0.495994
0.501437
0.506127
0.508254
0.506202
0.499174
0.489024
0.467388
0.473828
0.479038
0.482619
0.484666
0.485235
0.484447
0.482852
0.481196
0.480355
0.480866
0.482518
0.484499
0.485961
0.486249
0.484991
0.482252
0.47782
0.472121
0.468627
0.471185
0.472911
0.475493
0.477796
0.479541
0.480266
0.480257
0.479653
0.478828
0.47836
0.478813
0.479869
0.480875
0.48137
0.481165
0.480045
0.478045
0.475543
0.473271
0.472577
0.469288
0.469544
0.470085
0.470745
0.471441
0.472153
0.472662
0.472856
0.472823
0.472839
0.473185
0.473661
0.473911
0.473771
0.473269
0.472638
0.472017
0.471419
0.471044
0.470936
0.465713
0.465901
0.466252
0.466695
0.467165
0.467603
0.467955
0.468196
0.468361
0.468567
0.468907
0.469242
0.469421
0.469386
0.46916
0.468808
0.468408
0.468032
0.467775
0.467693
0.461292
0.461367
0.461511
0.461723
0.462
0.462327
0.462677
0.46302
0.463352
0.463716
0.464101
0.464391
0.464514
0.464485
0.464357
0.46419
0.464028
0.463893
0.463809
0.463776
0.456522
0.456572
0.456669
0.456811
0.457003
0.457249
0.45755
0.457903
0.458311
0.458787
0.45926
0.459608
0.459804
0.459877
0.459871
0.459823
0.459761
0.4597
0.459656
0.459635
0.451562
0.451592
0.45166
0.451769
0.451928
0.452152
0.452453
0.452844
0.453335
0.453932
0.454529
0.454977
0.455262
0.455422
0.455496
0.455521
0.455519
0.455504
0.455488
0.455475
0.44642
0.446441
0.446496
0.446593
0.446744
0.44697
0.447294
0.447741
0.448333
0.449078
0.449838
0.450429
0.450825
0.451079
0.45123
0.451312
0.451352
0.451367
0.451368
0.451359
0.441081
0.441099
0.441157
0.441257
0.44142
0.441672
0.442047
0.44258
0.443306
0.44424
0.445206
0.445964
0.446507
0.446863
0.447089
0.447226
0.447302
0.44734
0.447353
0.447348
0.435535
0.435551
0.435613
0.435728
0.435918
0.436218
0.43667
0.437325
0.438229
0.439407
0.44064
0.441628
0.442327
0.442801
0.443109
0.4433
0.443412
0.443472
0.443496
0.443492
0.429733
0.429751
0.429824
0.429961
0.430193
0.430562
0.431123
0.431941
0.43308
0.434573
0.436142
0.437403
0.438306
0.438924
0.439329
0.439583
0.439734
0.439816
0.439851
0.439847
0.423612
0.423632
0.423722
0.423893
0.424184
0.424648
0.425355
0.42639
0.427832
0.429729
0.431725
0.433333
0.434487
0.435279
0.4358
0.436128
0.436325
0.436434
0.436481
0.436476
0.417087
0.417112
0.417226
0.417443
0.417812
0.418402
0.419303
0.42062
0.422457
0.424871
0.427409
0.429453
0.430921
0.431929
0.432592
0.433012
0.433263
0.433402
0.433463
0.433458
0.410046
0.410078
0.410225
0.410503
0.410977
0.411734
0.412888
0.414573
0.416919
0.419995
0.423219
0.425811
0.427672
0.428948
0.429789
0.430321
0.43064
0.430816
0.430894
0.430888
0.402338
0.40238
0.40257
0.402931
0.403543
0.404521
0.406007
0.408172
0.411175
0.415095
0.419189
0.42247
0.424821
0.426432
0.427493
0.428164
0.428566
0.42879
0.428887
0.428879
0.393761
0.393817
0.394066
0.394538
0.395336
0.396606
0.398531
0.401323
0.405175
0.410174
0.415365
0.419508
0.422471
0.424499
0.425834
0.426678
0.427185
0.427466
0.427588
0.427578
0.384043
0.384119
0.38445
0.385073
0.386123
0.387787
0.390295
0.39391
0.398861
0.405235
0.411805
0.417024
0.420749
0.423296
0.424973
0.426032
0.426668
0.42702
0.427173
0.427159
0.372809
0.372914
0.37336
0.374195
0.375593
0.377793
0.381088
0.385793
0.392172
0.400292
0.408584
0.415135
0.419803
0.422995
0.425097
0.426427
0.427225
0.427666
0.427858
0.427841
0.359527
0.359679
0.360292
0.361432
0.363324
0.366276
0.370648
0.376812
0.385046
0.395375
0.405795
0.413981
0.419809
0.423801
0.426436
0.428106
0.429111
0.429667
0.429908
0.429886
0.343429
0.343657
0.344523
0.346121
0.348742
0.352778
0.35866
0.366796
0.377444
0.390534
0.403548
0.413713
0.420959
0.425946
0.429257
0.431366
0.43264
0.433347
0.433653
0.433625
0.323359
0.323714
0.324983
0.327311
0.331074
0.33674
0.344789
0.355613
0.369375
0.385862
0.40197
0.414485
0.423446
0.429673
0.433856
0.436552
0.438193
0.439106
0.439501
0.439469
0.297443
0.298011
0.300003
0.303632
0.30932
0.317552
0.32877
0.343247
0.360959
0.381513
0.401197
0.416424
0.427419
0.435192
0.440529
0.44405
0.446234
0.447457
0.447982
0.447946
0.262207
0.263215
0.266877
0.273171
0.282336
0.294707
0.310551
0.329889
0.352452
0.377692
0.401345
0.419583
0.432917
0.442582
0.449463
0.454208
0.457297
0.459096
0.459877
0.459834
0.210389
0.213447
0.22183
0.233889
0.249297
0.268154
0.290461
0.315949
0.344172
0.374543
0.402385
0.423803
0.439704
0.451589
0.460466
0.467025
0.471737
0.474878
0.47649
0.476486
0.129258
0.144901
0.164713
0.187165
0.211998
0.239546
0.26968
0.302081
0.336355
0.372068
0.404258
0.42909
0.447917
0.462521
0.474069
0.483346
0.4909
0.49699
0.501835
0.503533
0.0433855
0.0763851
0.108264
0.14144
0.176104
0.212292
0.249981
0.289019
0.329159
0.370218
0.407029
0.435687
0.457862
0.475598
0.490168
0.502441
0.512956
0.522111
0.531823
0.534287
-0.0140571
0.0208058
0.0604141
0.101807
0.14436
0.18799
0.232448
0.277442
0.322715
0.368195
0.408522
0.439839
0.464129
0.48358
0.499479
0.512668
0.523738
0.533121
0.541573
0.54393
-0.0555474
-0.0184072
0.0250825
0.0710966
0.118901
0.167916
0.217539
0.26722
0.316516
0.365307
0.408048
0.440983
0.46635
0.486472
0.502726
0.516024
0.527031
0.536272
0.544387
0.546787
-0.0848866
-0.0472094
-0.00123424
0.0478977
0.0992656
0.152131
0.205639
0.258883
0.311131
0.362121
0.406211
0.43989
0.465666
0.48598
0.502268
0.515488
0.526347
0.535375
0.543081
0.545445
-0.107659
-0.0692524
-0.0216027
0.0298611
0.084015
0.139899
0.196358
0.252198
0.306402
0.358534
0.403042
0.436833
0.462633
0.482912
0.499118
0.512237
0.522862
0.531722
0.539118
0.541468
-0.125879
-0.0867052
-0.0375813
0.0157626
0.0721253
0.130394
0.189166
0.246904
0.302248
0.354591
0.398692
0.432106
0.457695
0.477857
0.49396
0.506935
0.51752
0.526201
0.533331
0.535681
-0.140887
-0.100941
-0.0504201
0.0046013
0.062892
0.123167
0.18379
0.242868
0.298646
0.350326
0.393229
0.425843
0.451123
0.471216
0.487316
0.50028
0.510809
0.519419
0.526376
0.528748
-0.153511
-0.11276
-0.0609937
-0.00436961
0.0556775
0.11775
0.179944
0.239967
0.295602
0.345759
0.386635
0.418054
0.443025
0.463235
0.479551
0.492682
0.503287
0.511901
0.518733
0.521117
-0.16465
-0.12293
-0.0698535
-0.0116838
0.0500377
0.113797
0.177407
0.238125
0.293129
0.340923
0.378821
0.408611
0.433369
0.454054
0.470967
0.484571
0.495459
0.504202
0.511012
0.513445
-0.174556
-0.131736
-0.0774942
-0.0178102
0.0455856
0.111025
0.176008
0.237292
0.291298
0.335876
0.36966
0.397229
0.42196
0.443705
0.461842
0.476413
0.487928
0.497007
0.503905
0.506412
-0.183732
-0.140093
-0.0843387
-0.0231037
0.0420127
0.109165
0.175576
0.23743
0.29021
0.33071
0.358985
0.383486
0.408405
0.432088
0.45241
0.468724
0.481393
0.491119
0.498298
0.500942
-0.192436
-0.147834
-0.0906645
-0.0278449
0.0390415
0.107998
0.175962
0.238504
0.289984
0.325617
0.346646
0.366778
0.39206
0.418927
0.442876
0.462096
0.476748
0.487581
0.495276
0.49809
-0.201001
-0.155263
-0.0967162
-0.0322587
0.0364514
0.107319
0.176996
0.240462
0.290749
0.320856
0.33255
0.346329
0.371934
0.403694
0.433414
0.457107
0.475126
0.487679
0.496207
0.499278
-0.209672
-0.162648
-0.102683
-0.0365462
0.0340468
0.106935
0.178527
0.243218
0.292617
0.316777
0.316718
0.321243
0.34665
0.385525
0.424249
0.455175
0.477472
0.492999
0.502789
0.5062
-0.21862
-0.170151
-0.108727
-0.0408803
0.0316587
0.106672
0.180394
0.246667
0.295653
0.313763
0.299348
0.290493
0.314406
0.362718
0.415208
0.456517
0.485968
0.505331
0.517038
0.521002
-0.227715
-0.177846
-0.114913
-0.0453499
0.0291482
0.106359
0.182411
0.250681
0.299888
0.312247
0.280894
0.252726
0.272679
0.334466
0.405454
0.462364
0.502022
0.527155
0.54152
0.546178
-0.236996
-0.185793
-0.121325
-0.0500319
0.0264309
0.105866
0.184409
0.255093
0.305297
0.312633
0.262111
0.206817
0.218216
0.296347
0.394707
0.474076
0.528013
0.560683
0.577803
0.581938
-0.246662
-0.193969
-0.127959
-0.0549665
0.0234315
0.10511
0.186235
0.259682
0.311758
0.315286
0.243934
0.151901
0.145513
0.243882
0.385093
0.494162
0.567037
0.608723
0.627135
0.628958
-0.256488
-0.202364
-0.134779
-0.0601294
0.0201106
0.103999
0.187787
0.264267
0.319058
0.320469
0.227394
0.0872271
0.0476379
0.170006
0.368483
0.522135
0.620761
0.675023
0.692536
0.682695
-0.266722
-0.210946
-0.14173
-0.0655359
0.0164412
0.102501
0.188961
0.268757
0.327078
0.328395
0.213415
0.0144219
-0.0900758
0.0591856
0.343191
0.558206
0.684475
0.754978
0.781398
0.759144
-0.277224
-0.219604
-0.148777
-0.071269
0.0123005
0.100506
0.189655
0.273057
0.335881
0.339683
0.203789
-0.076448
-0.306094
-0.130152
0.305306
0.584914
0.732888
0.778393
0.787535
0.732005
-0.287611
-0.227953
-0.155675
-0.0772458
0.00782867
0.0981058
0.189767
0.276987
0.345089
0.354237
0.202459
-0.183094
-0.669446
-0.528984
0.170649
0.570279
0.731004
0.724279
0.612337
0.531853
-0.29696
-0.235241
-0.161838
-0.0828342
0.0036248
0.0957039
0.189463
0.280559
0.354416
0.371898
0.212924
-0.310814
-1.24101
-1.20785
-0.14668
0.415854
0.543993
0.495388
0.374927
0.295743
-0.379452
-0.239044
-0.168688
-0.089007
-0.00157137
0.0920806
0.188752
0.283508
0.36405
0.393663
0.2433
-0.385047
-1.86322
-2.03843
-0.683852
-0.0209809
0.101835
0.116218
0.039901
-0.00489055
-0.26366
-0.244675
-0.179174
-0.0987602
-0.00976175
0.0863409
0.185867
0.285741
0.375203
0.422624
0.304527
-0.421157
-2.33699
-2.60711
-1.31219
-0.830121
-0.592492
-0.496524
-0.511152
-0.359864
-0.307027
-0.258002
-0.188989
-0.108026
-0.0176671
0.0800054
0.182312
0.285723
0.381849
0.444714
0.362874
-0.300903
-1.95209
-2.21424
-1.49495
-1.10184
-0.960068
-0.888683
-0.918678
-0.731465
-0.332156
-0.276018
-0.20264
-0.119697
-0.0276394
0.0718661
0.176674
0.283498
0.38541
0.461568
0.416743
-0.089326
-1.28692
-1.57087
-1.32367
-1.21643
-1.23219
-1.25437
-1.35101
-1.16563
-0.357551
-0.295038
-0.21777
-0.132164
-0.0380731
0.0632878
0.170374
0.28016
0.386866
0.474686
0.466878
0.131574
-0.644932
-0.993586
-1.07971
-1.22717
-1.42996
-1.61133
-1.83084
-1.73903
-0.381177
-0.314725
-0.234135
-0.145829
-0.0496112
0.0537016
0.162901
0.275053
0.386087
0.48411
0.506529
0.309543
-0.168316
-0.545429
-0.863157
-1.21731
-1.58914
-1.92073
-2.3026
-2.67293
-0.403995
-0.335264
-0.252025
-0.161176
-0.0627752
0.042641
0.153639
0.268225
0.38295
0.486771
0.532252
0.425949
0.11516
-0.27713
-0.703942
-1.18663
-1.69792
-2.11161
-2.25497
-2.5138
-0.427292
-0.357019
-0.27165
-0.178524
-0.0779051
0.0294511
0.142429
0.259115
0.375881
0.485468
0.547242
0.494486
0.278625
-0.0961193
-0.564296
-1.12732
-1.75502
-2.17274
-2.16249
-2.21448
-0.451643
-0.380335
-0.293189
-0.19791
-0.0952626
0.0140569
0.12885
0.247187
0.366383
0.478632
0.549266
0.527409
0.363604
0.0301881
-0.433683
-1.05288
-1.82163
-2.43548
-2.36014
-2.32861
-0.47789
-0.405484
-0.316697
-0.219434
-0.114794
-0.00358484
0.112835
0.232548
0.352725
0.467126
0.544171
0.541919
0.416748
0.144434
-0.275491
-0.912147
-1.73607
-2.51032
-2.52552
-2.35978
-0.506519
-0.432861
-0.342351
-0.243143
-0.136607
-0.023725
0.0942137
0.21542
0.337139
0.452808
0.533279
0.544415
0.456558
0.258042
-0.0592994
-0.545306
-1.12379
-1.55112
-1.5966
-1.49296
-0.537527
-0.462515
-0.37025
-0.269202
-0.160759
-0.0459241
0.0737381
0.196147
0.318658
0.435605
0.520909
0.546984
0.500583
0.381943
0.203143
-0.0278519
-0.239864
-0.351338
-0.360029
-0.330786
-0.570674
-0.494471
-0.400326
-0.297252
-0.186802
-0.0702571
0.0508935
0.174779
0.298591
0.417749
0.509373
0.552881
0.547148
0.504218
0.445956
0.387956
0.356714
0.371952
0.408802
0.423535
-0.606134
-0.528589
-0.432472
-0.32742
-0.214954
-0.0963357
0.0267405
0.152174
0.27745
0.399947
0.499299
0.560417
0.58954
0.5998
0.608025
0.627171
0.663864
0.712997
0.752089
0.76249
-0.643637
-0.564608
-0.46626
-0.358931
-0.244212
-0.123505
0.0014073
0.12864
0.256362
0.383264
0.491132
0.568254
0.622862
0.666742
0.709705
0.756744
0.807714
0.856545
0.8902
0.898545
-0.682622
-0.601817
-0.501146
-0.391382
-0.274268
-0.151341
-0.0242648
0.105304
0.236355
0.36796
0.484847
0.575137
0.646509
0.707714
0.763836
0.816416
0.864761
0.906296
0.935274
0.943309
-0.721958
-0.639443
-0.536162
-0.423775
-0.304123
-0.178838
-0.0493048
0.0830051
0.217546
0.354472
0.478937
0.579531
0.661189
0.730581
0.790577
0.842518
0.886722
0.923087
0.94938
0.957299
-0.760318
-0.675527
-0.569915
-0.454822
-0.33261
-0.20483
-0.0727145
0.0624413
0.200366
0.342215
0.473911
0.581076
0.668556
0.741333
0.802234
0.852948
0.894866
0.929046
0.952906
0.961054
-0.794807
-0.708275
-0.600387
-0.482681
-0.358084
-0.227948
-0.0935355
0.0440988
0.185029
0.331104
0.467373
0.579128
0.669461
0.743472
0.804215
0.854002
0.894619
0.927679
0.95072
0.95879
-0.821751
-0.734755
-0.624862
-0.505087
-0.378665
-0.246823
-0.110866
0.028436
0.171425
0.320192
0.459118
0.573069
0.664323
0.738365
0.798565
0.847478
0.887189
0.919283
0.941557
0.949633
-0.837181
-0.751379
-0.640417
-0.519633
-0.392333
-0.259966
-0.123736
0.0158315
0.159335
0.30882
0.448328
0.562431
0.653228
0.726487
0.785804
0.833885
0.87288
0.904382
0.926238
0.934293
-0.837838
-0.75395
-0.643454
-0.523248
-0.396878
-0.265828
-0.131188
0.00674689
0.148608
0.29634
0.434105
0.54638
0.635535
0.707333
0.765482
0.812661
0.85099
0.88196
0.903454
0.911678
-0.817172
-0.737114
-0.629592
-0.512265
-0.389354
-0.262361
-0.132016
0.00155492
0.139008
0.282052
0.415552
0.523878
0.609966
0.679483
0.736024
0.782121
0.819784
0.850099
0.871519
0.880061
-0.768452
-0.694525
-0.59366
-0.48253
-0.366818
-0.24745
-0.124914
0.000842723
0.130555
0.26586
0.391721
0.493621
0.57475
0.640596
0.69458
0.738969
0.775493
0.805355
0.827046
0.835743
-0.683698
-0.619098
-0.528952
-0.429921
-0.326459
-0.21951
-0.109013
0.00514782
0.123545
0.247349
0.362155
0.454625
0.528005
0.587647
0.636943
0.677861
0.711617
0.73934
0.761627
0.770311
-0.554999
-0.506791
-0.432717
-0.351868
-0.267127
-0.177778
-0.0838594
0.0147635
0.118276
0.227073
0.327484
0.407229
0.469347
0.518844
0.559143
0.592584
0.619889
0.641016
0.656365
0.662364
-0.360501
-0.338599
-0.297453
-0.24735
-0.189328
-0.123863
-0.0510173
0.029018
0.115998
0.20955
0.29675
0.365652
0.418331
0.458951
0.490147
0.513868
0.532523
0.54809
0.5602
0.564111
-0.179823
-0.174195
-0.159625
-0.137064
-0.105577
-0.064382
-0.0132344
0.0476933
0.117799
0.196052
0.270187
0.328553
0.372256
0.404736
0.428757
0.446341
0.458455
0.465823
0.469732
0.470919
-0.067524
-0.0667362
-0.0621142
-0.0521294
-0.035627
-0.0109403
0.0232708
0.0676791
0.122152
0.185694
0.247346
0.295912
0.331636
0.357327
0.375087
0.38667
0.39382
0.397994
0.399936
0.400223
-0.00487191
-0.00513848
-0.00365277
0.00151323
0.011678
0.0280836
0.0520164
0.0846287
0.126492
0.177107
0.227188
0.266692
0.29534
0.315421
0.329026
0.3379
0.343279
0.346096
0.347177
0.347362
0.0327525
0.0329099
0.0341476
0.0375239
0.0441455
0.055354
0.0725255
0.0968453
0.129066
0.169067
0.20932
0.241186
0.264173
0.280145
0.290785
0.297504
0.301468
0.303589
0.304514
0.30471
0.0578983
0.0581378
0.0591815
0.0617274
0.0665624
0.0746776
0.0872481
0.105471
0.130239
0.161665
0.193725
0.219196
0.237489
0.250071
0.258371
0.263604
0.266707
0.268374
0.269105
0.269261
0.0744976
0.0747443
0.075617
0.0775696
0.0811896
0.0872539
0.0967042
0.110553
0.129652
0.154261
0.179651
0.199902
0.214426
0.224389
0.230944
0.23506
0.237494
0.238806
0.239387
0.239511
0.08523
0.0854485
0.086158
0.0876808
0.0904502
0.0950556
0.102242
0.112847
0.12762
0.146869
0.166902
0.182936
0.194435
0.202308
0.207474
0.210715
0.212633
0.213667
0.214126
0.214223
0.0915941
0.091773
0.0923349
0.0935184
0.0956519
0.0991879
0.104705
0.112876
0.124333
0.13938
0.155143
0.167803
0.176886
0.183101
0.187178
0.189733
0.191244
0.192059
0.192419
0.192493
0.0946463
0.0947899
0.0952316
0.0961519
0.0978025
0.100531
0.10479
0.111113
0.120017
0.131778
0.144163
0.154135
0.161297
0.166198
0.16941
0.171423
0.172611
0.173251
0.173533
0.173591
0.0951626
0.0952762
0.0956221
0.0963382
0.0976185
0.099733
0.103034
0.107942
0.114873
0.124065
0.133782
0.141625
0.147263
0.151122
0.153651
0.155234
0.156167
0.156669
0.156889
0.156934
0.093727
0.0938162
0.0940862
0.0946434
0.0956385
0.0972808
0.0998451
0.103662
0.109064
0.116249
0.123868
0.130029
0.134461
0.137494
0.139481
0.140724
0.141458
0.141851
0.142023
0.142057
0.0907804
0.0908504
0.0910612
0.0914954
0.0922695
0.0935466
0.0955417
0.0985146
0.102728
0.108344
0.114311
0.119144
0.122623
0.125005
0.126567
0.127544
0.128118
0.128426
0.128559
0.128585
0.0866637
0.0867183
0.0868825
0.0872205
0.0878234
0.088818
0.0903719
0.092688
0.0959744
0.100362
0.105034
0.108822
0.111551
0.113419
0.114642
0.115408
0.115858
0.116099
0.116203
0.116223
0.0816363
0.0816789
0.081807
0.0820702
0.0825396
0.0833142
0.0845244
0.0863297
0.0888939
0.0923214
0.0959743
0.0989391
0.101076
0.10254
0.103498
0.104096
0.104447
0.104635
0.104715
0.10473
0.075902
0.075935
0.0760343
0.0762391
0.0766044
0.0772074
0.0781496
0.0795558
0.0815546
0.0842286
0.0870821
0.089399
0.0910685
0.0922119
0.0929615
0.0934306
0.0937058
0.093852
0.0939148
0.0939267
0.0696159
0.0696416
0.0697189
0.0698781
0.070162
0.0706305
0.0713636
0.0724582
0.0740143
0.0760971
0.0783221
0.0801298
0.0814328
0.0823257
0.08291
0.0832744
0.0834884
0.083602
0.0836506
0.0836597
0.0629028
0.0629225
0.0629821
0.0631054
0.0633256
0.0636892
0.0642574
0.0651057
0.0663135
0.0679321
0.0696613
0.0710674
0.0720826
0.0727779
0.0732319
0.0735144
0.0736796
0.0737671
0.0738041
0.073811
0.055857
0.0558721
0.0559181
0.056013
0.0561823
0.0564627
0.0569021
0.0575585
0.0584925
0.0597447
0.0610831
0.0621713
0.0629554
0.0634913
0.0638423
0.0640619
0.0641907
0.0642589
0.0642883
0.0642936
0.048554
0.0485655
0.0486007
0.0486734
0.048803
0.0490174
0.0493537
0.049857
0.0505737
0.0515345
0.0525614
0.0533961
0.0539979
0.0544104
0.0546806
0.0548488
0.0549471
0.0549991
0.0550208
0.0550248
0.0410554
0.0410638
0.0410897
0.0411441
0.0412421
0.0414041
0.0416581
0.0420384
0.0425803
0.0433076
0.0440866
0.0447211
0.0451792
0.045493
0.0456973
0.0458236
0.0458971
0.0459356
0.0459509
0.0459539
0.0334076
0.0334138
0.0334326
0.0334721
0.0335436
0.0336636
0.0338525
0.0341347
0.0345367
0.0350761
0.0356531
0.0361216
0.0364587
0.0366885
0.0368389
0.0369335
0.0369889
0.0370181
0.0370309
0.0370331
0.025648
0.0256518
0.0256643
0.0256923
0.0257441
0.0258301
0.025964
0.0261644
0.0264506
0.0268346
0.0272447
0.0275775
0.0278168
0.0279807
0.0280872
0.0281523
0.0281901
0.0282098
0.0282172
0.0282184
0.0178069
0.0178097
0.0178187
0.0178372
0.0178711
0.0179267
0.0180137
0.0181444
0.0183313
0.0185822
0.0188506
0.0190691
0.0192268
0.0193337
0.0194031
0.0194459
0.0194696
0.0194808
0.0194848
0.0194856
0.00991273
0.00991464
0.00992037
0.00993113
0.00994858
0.00997739
0.0100233
0.0100928
0.0101918
0.0103256
0.0104686
0.0105833
0.0106653
0.0107218
0.0107588
0.0107813
0.0107943
0.0108013
0.0108047
0.0108058
0.00198379
0.00198259
0.0019813
0.00198143
0.00198388
0.00198909
0.00199738
0.00200967
0.00202757
0.00205303
0.00208131
0.00210862
0.00212869
0.00214239
0.00215092
0.0021562
0.00215975
0.00216181
0.00216202
0.00216064
-1.3167
-0.984932
-0.61624
-0.299835
-0.022379
0.220123
0.424889
0.596734
0.705026
0.670292
-0.646981
-0.425524
-0.190365
0.0193717
0.205487
0.365228
0.495691
0.591918
0.6411
0.639688
-0.204788
-0.0597936
0.0903542
0.22705
0.347711
0.449629
0.52945
0.584901
0.61619
0.623689
0.0830257
0.176724
0.274295
0.362951
0.44109
0.506133
0.556721
0.591962
0.614025
0.623189
0.275874
0.337761
0.401705
0.459373
0.509729
0.551397
0.584136
0.609558
0.625718
0.631836
0.411836
0.451263
0.49241
0.531095
0.565508
0.595835
0.620167
0.637438
0.645702
0.649288
0.511646
0.538317
0.568306
0.599443
0.627222
0.649772
0.666557
0.675823
0.681232
0.686103
0.583571
0.607129
0.635949
0.661926
0.6852
0.705641
0.722728
0.735096
0.741604
0.750251
0.642707
0.672518
0.705157
0.736508
0.766173
0.791629
0.810684
0.823301
0.828157
0.84111
0.726763
0.770882
0.814742
0.852089
0.881453
0.903742
0.920952
0.933229
0.940997
0.956274
0.872283
0.913547
0.951713
0.981804
1.00716
1.02906
1.04723
1.06089
1.07117
1.08827
1.0444
1.07705
1.10457
1.12812
1.148
1.1661
1.18317
1.19931
1.2145
1.23202
1.23474
1.25254
1.26742
1.28348
1.29956
1.31434
1.32752
1.3412
1.35826
1.37816
1.41622
1.42595
1.43787
1.44883
1.45803
1.46737
1.47799
1.48929
1.50072
1.51607
1.62344
1.62698
1.61223
1.59775
1.59161
1.59729
1.61578
1.64596
1.67793
1.7045
1.93031
1.79555
1.71871
1.67586
1.65836
1.66249
1.68968
1.74612
1.84894
2.07334
0.544913
0.543342
0.539932
0.532675
0.52179
0.510925
0.501755
0.494665
0.489508
0.486376
0.485819
0.488087
0.492499
0.498772
0.507001
0.517219
0.528439
0.538114
0.542768
0.545108
0.469432
0.475315
0.483289
0.48874
0.492065
0.492696
0.490965
0.488036
0.485137
0.483133
0.482805
0.484372
0.487177
0.49041
0.493048
0.493759
0.491807
0.487343
0.480845
0.472872
0.4693
0.471022
0.475145
0.478793
0.481091
0.482192
0.482314
0.481645
0.48048
0.479448
0.479327
0.480358
0.481812
0.482977
0.483405
0.482922
0.481303
0.478421
0.474309
0.471078
0.470902
0.471133
0.472029
0.473326
0.474578
0.475802
0.4766
0.476731
0.476439
0.476101
0.476181
0.476797
0.477474
0.477814
0.477524
0.47654
0.475395
0.474148
0.473009
0.472457
0.467553
0.46765
0.467986
0.468473
0.468983
0.469464
0.469862
0.47013
0.470248
0.470304
0.470517
0.470935
0.471264
0.471354
0.471209
0.470886
0.470458
0.469995
0.469578
0.469376
0.463592
0.463643
0.463804
0.464077
0.46443
0.464832
0.465235
0.46559
0.46588
0.466154
0.46649
0.466828
0.467039
0.467064
0.466916
0.466663
0.466377
0.466115
0.465918
0.465826
0.458928
0.458954
0.45904
0.459181
0.459373
0.459618
0.459911
0.460241
0.460597
0.460986
0.461417
0.461803
0.462039
0.462129
0.46211
0.462032
0.461933
0.461838
0.46176
0.461719
0.454066
0.454081
0.454139
0.45424
0.454387
0.454589
0.454854
0.455189
0.455598
0.456089
0.456638
0.457113
0.457425
0.457595
0.457665
0.457674
0.457651
0.457617
0.457583
0.457562
0.449015
0.449022
0.449063
0.449142
0.449267
0.449452
0.449715
0.450075
0.450551
0.451153
0.451845
0.452455
0.452879
0.453146
0.4533
0.453381
0.453416
0.453425
0.453421
0.453414
0.443776
0.443781
0.443819
0.443893
0.444016
0.444208
0.444496
0.444908
0.445475
0.44622
0.447094
0.447881
0.448437
0.448819
0.44906
0.449205
0.449286
0.449326
0.449342
0.449343
0.438336
0.438337
0.438377
0.438458
0.438595
0.438816
0.439152
0.439646
0.440341
0.44127
0.442376
0.44338
0.444123
0.444626
0.444959
0.445168
0.445293
0.445363
0.445395
0.445402
0.43267
0.43267
0.432714
0.432807
0.43297
0.433235
0.433645
0.434254
0.43512
0.43629
0.437694
0.438982
0.439933
0.440593
0.441034
0.441315
0.441487
0.441584
0.441633
0.441645
0.426717
0.426716
0.426768
0.426882
0.427082
0.427412
0.427924
0.428689
0.429781
0.431262
0.433046
0.434689
0.435903
0.436754
0.437324
0.437691
0.437916
0.438046
0.438112
0.43813
0.420406
0.420404
0.420469
0.420612
0.420865
0.421281
0.42193
0.4229
0.424287
0.42617
0.428439
0.430529
0.432076
0.43316
0.433889
0.434359
0.434649
0.434817
0.434903
0.434927
0.41364
0.413637
0.41372
0.413902
0.414225
0.414757
0.415586
0.416825
0.418595
0.420995
0.423881
0.426536
0.428499
0.429875
0.430801
0.431398
0.431767
0.431981
0.432091
0.432122
0.406287
0.406283
0.40639
0.406625
0.407042
0.407727
0.408793
0.410383
0.412649
0.415713
0.419385
0.422752
0.425238
0.426979
0.428149
0.428905
0.429371
0.429641
0.42978
0.429819
0.398173
0.398169
0.398309
0.398615
0.399157
0.400044
0.401424
0.403474
0.406385
0.410301
0.414971
0.419235
0.422374
0.42457
0.426044
0.426996
0.427583
0.427924
0.428099
0.428148
0.389066
0.389061
0.389246
0.389649
0.390359
0.391519
0.393315
0.395971
0.399721
0.404732
0.410667
0.416056
0.420011
0.422773
0.424626
0.425822
0.42656
0.426988
0.427208
0.427269
0.378645
0.378641
0.37889
0.379428
0.380369
0.381899
0.384255
0.387716
0.392563
0.398982
0.406512
0.413304
0.418271
0.421737
0.424062
0.425563
0.426489
0.427026
0.427301
0.427377
0.366469
0.366467
0.366808
0.367538
0.368805
0.370849
0.373972
0.378517
0.384807
0.393031
0.402562
0.411088
0.417303
0.421638
0.424549
0.426432
0.427596
0.428271
0.428616
0.42871
0.351899
0.351905
0.352388
0.353404
0.355145
0.357926
0.362124
0.368147
0.376347
0.386879
0.398892
0.409534
0.417274
0.422682
0.426327
0.428691
0.430157
0.43101
0.431447
0.431567
0.333974
0.333999
0.33472
0.336193
0.33866
0.342536
0.348288
0.356366
0.367101
0.380559
0.3956
0.408782
0.41836
0.425087
0.429656
0.432642
0.434506
0.435599
0.436164
0.43632
0.311146
0.311227
0.3124
0.314655
0.318306
0.323904
0.331979
0.342954
0.357044
0.374152
0.392804
0.408959
0.420712
0.42905
0.434796
0.438614
0.441035
0.442481
0.443248
0.443468
0.280792
0.281066
0.283198
0.286913
0.29266
0.301124
0.312771
0.327827
0.346278
0.367812
0.39063
0.410149
0.424404
0.434683
0.441945
0.446921
0.450187
0.452218
0.453355
0.453711
0.238146
0.239023
0.243526
0.250357
0.260177
0.273598
0.290682
0.3113
0.335176
0.361832
0.389228
0.41238
0.429393
0.441925
0.451099
0.457702
0.462324
0.465436
0.467366
0.467999
0.174584
0.177285
0.188233
0.202405
0.220334
0.241875
0.26662
0.294263
0.324428
0.356626
0.388739
0.415567
0.435426
0.450403
0.461816
0.470539
0.477191
0.48227
0.485889
0.486676
0.0951341
0.102093
0.123354
0.149847
0.178547
0.209403
0.242356
0.277267
0.313843
0.351762
0.388931
0.420006
0.44345
0.461732
0.476328
0.488183
0.497954
0.506157
0.511915
0.514113
0.0167357
0.0324612
0.0650575
0.101632
0.13982
0.179383
0.220142
0.261903
0.304451
0.347598
0.389336
0.424142
0.450568
0.471445
0.488402
0.502408
0.514042
0.52374
0.531073
0.535003
-0.0326823
-0.0161262
0.0206938
0.0632213
0.107958
0.154054
0.201018
0.248435
0.29593
0.34326
0.388382
0.42569
0.453918
0.476112
0.493967
0.508501
0.520376
0.530095
0.537392
0.541225
-0.0680897
-0.0511492
-0.011414
0.034671
0.0833765
0.133874
0.185382
0.237137
0.288457
0.338925
0.386367
0.425176
0.454305
0.477028
0.495155
0.509792
0.521657
0.531282
0.538585
0.542524
-0.0938508
-0.0770388
-0.0357293
0.012833
0.0645396
0.118332
0.173246
0.228244
0.282329
0.334835
0.383493
0.422895
0.452305
0.475148
0.493281
0.507847
0.519593
0.529086
0.536384
0.540373
-0.114561
-0.0974389
-0.0546502
-0.00419291
0.0497903
0.106183
0.163779
0.221238
0.277233
0.330842
0.379768
0.419051
0.448327
0.471074
0.489116
0.503574
0.515208
0.524579
0.53188
0.535898
-0.131381
-0.113927
-0.0697665
-0.0176304
0.0382892
0.0968042
0.156556
0.215885
0.273109
0.326985
0.375285
0.413798
0.442659
0.465234
0.483195
0.4976
0.50919
0.518506
0.525754
0.52982
-0.145423
-0.127556
-0.0821173
-0.028467
0.0291959
0.0896077
0.151184
0.21198
0.26988
0.32327
0.370053
0.407182
0.435424
0.457877
0.475908
0.490401
0.50205
0.511387
0.518652
0.522809
-0.157444
-0.139176
-0.0924658
-0.0373553
0.0219647
0.0841109
0.147341
0.209342
0.267508
0.319726
0.364071
0.399129
0.426597
0.449118
0.467513
0.482362
0.494259
0.503733
0.51107
0.515301
-0.168157
-0.14937
-0.101369
-0.0447926
0.0161162
0.0799668
0.14477
0.20785
0.265998
0.316427
0.357303
0.389463
0.416009
0.438942
0.458203
0.473853
0.486325
0.496149
0.50368
0.508073
-0.177893
-0.158459
-0.109313
-0.0512384
0.0112919
0.0768518
0.143248
0.20738
0.265377
0.313476
0.349745
0.377905
0.403302
0.427177
0.448094
0.465263
0.478829
0.489322
0.497212
0.501775
-0.187004
-0.16703
-0.116576
-0.0570225
0.00718355
0.0745143
0.142572
0.207855
0.265672
0.311047
0.341414
0.364083
0.38791
0.413461
0.437213
0.45699
0.472457
0.484135
0.492657
0.497546
-0.195804
-0.17526
-0.123468
-0.0624144
0.00352037
0.072708
0.142564
0.209157
0.266941
0.309313
0.332432
0.347582
0.369012
0.397151
0.425468
0.449464
0.468071
0.481667
0.491215
0.49658
-0.204571
-0.183328
-0.130201
-0.0676015
9.14343e-05
0.0712154
0.14302
0.211164
0.26918
0.308538
0.323004
0.327957
0.345477
0.37723
0.412637
0.44322
0.466581
0.483239
0.494433
0.500467
-0.213378
-0.191448
-0.136953
-0.07276
-0.00326846
0.0698591
0.143758
0.213741
0.272401
0.308949
0.313517
0.304813
0.315786
0.35225
0.398354
0.438815
0.469282
0.490445
0.504115
0.511185
-0.222513
-0.199745
-0.143844
-0.0780345
-0.00669991
0.0684872
0.144609
0.21672
0.276531
0.310785
0.304496
0.277846
0.278087
0.320178
0.381257
0.436447
0.477504
0.505109
0.522244
0.530295
-0.23172
-0.208285
-0.150936
-0.0834913
-0.0103133
0.0669776
0.145423
0.219914
0.281444
0.314203
0.296602
0.247049
0.230663
0.278275
0.360229
0.436452
0.492959
0.529483
0.551094
0.561014
-0.241246
-0.217063
-0.158257
-0.0891777
-0.0141772
0.0652028
0.146062
0.223176
0.286983
0.31929
0.290529
0.212991
0.170426
0.221503
0.33036
0.439983
0.51847
0.567296
0.593758
0.60426
-0.251021
-0.226035
-0.16579
-0.095092
-0.0183037
0.063117
0.146397
0.22634
0.29297
0.326006
0.287019
0.176355
0.0935305
0.143206
0.290726
0.447308
0.554121
0.61934
0.651313
0.658208
-0.261143
-0.235292
-0.17348
-0.101182
-0.0227266
0.0606725
0.146376
0.229231
0.299176
0.334254
0.286754
0.136541
-0.00417966
0.0326944
0.231205
0.459541
0.604948
0.68877
0.729797
0.722864
-0.271551
-0.244826
-0.181273
-0.107462
-0.0274978
0.0577997
0.145922
0.231825
0.305618
0.34429
0.290696
0.0923526
-0.139509
-0.142392
0.142262
0.462827
0.654223
0.751027
0.802252
0.814313
-0.282127
-0.254498
-0.188956
-0.113897
-0.0326618
0.0544359
0.144951
0.233923
0.312028
0.355883
0.300155
0.0466748
-0.335215
-0.45254
-0.0363941
0.454394
0.683637
0.77046
0.744162
0.653195
-0.292179
-0.263679
-0.196229
-0.12061
-0.0382865
0.0503967
0.143297
0.235377
0.318081
0.368534
0.316288
0.00729287
-0.628207
-1.0401
-0.409197
0.318283
0.623548
0.66215
0.575094
0.446343
-0.302881
-0.271428
-0.202411
-0.127571
-0.044182
0.0460157
0.140628
0.2361
0.323555
0.38158
0.338525
-0.017641
-1.00662