/*--------------------------------*- C++ -*----------------------------------*\
  =========                 |
  \\      /  F ield         | OpenFOAM: The Open Source CFD Toolbox
   \\    /   O peration     | Website:  https://openfoam.org
    \\  /    A nd           | Version:  9
     \\/     M anipulation  |
\*---------------------------------------------------------------------------*/
FoamFile
{
    format      ascii;
    class       surfaceScalarField;
    location    "4";
    object      phi;
}
// * * * * * * * * * * * * * * * * * * * * * * * * * * * * * * * * * * * * * //

dimensions      [0 3 -1 0 0 0 0];

internalField   nonuniform List<scalar> 
17370
(
-0.0916194
0.0964564
0.284174
-0.0778808
0.0590887
0.365568
-0.0421288
0.030582
0.427715
-0.0213446
0.0153892
0.505207
-0.0108291
0.00790852
0.602323
-0.00559472
0.00406243
0.72059
-0.00286955
0.00213953
0.863637
-0.00156876
0.00117274
1.03585
-0.000806278
0.000496762
1.24281
-0.000202778
-1.1226e-05
1.4914
0.000245999
-0.000553635
1.4915
0.0008527
-0.0012079
1.24305
0.00159692
-0.00215847
1.0362
0.00287794
-0.00406522
0.864094
0.00559866
-0.00791419
0.721373
0.010838
-0.0154028
0.603779
0.0213608
-0.030599
0.508677
0.0421439
-0.0590997
0.433124
0.0778875
-0.0964583
0.365346
0.0916248
0.197386
-0.128239
0.0917332
0.0365057
-0.365213
0.355546
-0.0658968
0.0755637
-0.447808
0.454345
-0.0737451
0.0672085
-0.521147
0.528822
-0.0599255
0.0522506
-0.612464
0.619791
-0.04518
0.0378534
-0.726496
0.732376
-0.0316802
0.0258003
-0.867049
0.871186
-0.0212456
0.0171081
-1.03804
1.04101
-0.0138756
0.0109103
-1.24428
1.24662
-0.00850712
0.00615821
-1.49246
1.49469
-0.00408741
0.001858
-1.49241
1.49446
0.000209056
-0.00225943
-1.24374
1.24577
0.00447026
-0.00649923
-1.0372
1.03957
0.00881044
-0.0111726
-0.865736
0.868924
0.0140958
-0.0172844
-0.724108
0.728646
0.0213887
-0.0259263
-0.608531
0.614705
0.0318023
-0.0379762
-0.514874
0.521938
0.0452981
-0.0523627
-0.440604
0.447873
0.0600333
-0.0673027
-0.3757
0.377505
0.0738139
-0.0756188
-0.257714
0.228301
0.0659331
-0.0365201
-0.075961
0.0703094
0.00565165
-0.031331
0.0372508
-0.374419
0.368499
-0.0396074
0.0398017
-0.451115
0.450921
-0.0385175
0.0368986
-0.525494
0.527113
-0.034738
0.0325499
-0.618933
0.621121
-0.0297639
0.0268176
-0.733071
0.736018
-0.0232236
0.0198455
-0.872748
0.876126
-0.0161339
0.0128638
-1.04272
1.04599
-0.00935385
0.00622558
-1.24843
1.25156
-0.00282563
-0.000363174
-1.49696
1.50014
0.00357117
-0.00695495
-1.49733
1.50072
0.0100673
-0.0135328
-1.2496
1.25306
0.016774
-0.0204293
-1.04468
1.04834
0.0237649
-0.0272892
-0.875624
0.879148
0.030176
-0.0328858
-0.737216
0.739926
0.0350123
-0.03712
-0.623899
0.626007
0.0386973
-0.0399472
-0.532525
0.533775
0.0397339
-0.0373632
-0.455607
0.453236
0.0314191
-0.0188259
-0.341823
0.32923
0.00567017
-0.075916
0.0702458
-0.069063
0.0692391
-0.000176085
-0.0071302
0.0129481
-0.361622
0.355805
-0.018994
0.0235718
-0.447494
0.442916
-0.0269658
0.0286661
-0.526877
0.525176
-0.0292135
0.0286304
-0.622616
0.623199
-0.0271558
0.0252811
-0.738409
0.740283
-0.0227859
0.0201677
-0.87908
0.881699
-0.0170067
0.0139114
-1.04921
1.05231
-0.0103502
0.00695433
-1.25495
1.25835
-0.00302622
-0.000806726
-1.50387
1.5077
0.00461621
-0.00847127
-1.50455
1.5084
0.0117942
-0.0152676
-1.25666
1.26013
0.0182609
-0.021305
-1.05166
1.05471
0.0238077
-0.026185
-0.882029
0.884407
0.0279582
-0.0293448
-0.742024
0.743411
0.0298575
-0.0292312
-0.626891
0.626265
0.0274515
-0.0239717
-0.532032
0.528552
0.0193118
-0.013173
-0.447705
0.441566
0.00727536
-0.00196254
-0.320378
0.315065
-0.000152389
-0.0689748
0.0691272
-0.0692806
0.0691076
0.000173048
-0.0029056
0.00569179
-0.351698
0.348912
-0.00919085
0.0122412
-0.438934
0.435884
-0.0150438
0.0170031
-0.523054
0.521094
-0.0184569
0.0192059
-0.62278
0.622031
-0.0193529
0.0189157
-0.741318
0.741755
-0.0178371
0.0163709
-0.883813
0.885279
-0.0142844
0.0120063
-1.05513
1.05741
-0.00913895
0.0062171
-1.26162
1.26454
-0.00260803
-0.00101609
-1.51154
1.51516
0.00460639
-0.00814592
-1.51222
1.51576
0.0110459
-0.0138694
-1.2634
1.26622
0.0160131
-0.0179444
-1.05734
1.05927
0.0192797
-0.0202195
-0.886083
0.887023
0.0205383
-0.0202685
-0.743678
0.743409
0.0194038
-0.0178
-0.624752
0.623148
0.0157075
-0.0127706
-0.525028
0.522091
0.00960938
-0.00599999
-0.43661
0.433001
0.00311833
-0.00103004
-0.311886
0.309798
0.000208335
-0.0691442
0.0689359
-0.0689958
0.0689569
3.8962e-05
-0.00117568
0.00240699
-0.347039
0.345808
-0.00409771
0.00572322
-0.433605
0.431979
-0.00742994
0.00882687
-0.519378
0.517981
-0.010105
0.0109786
-0.621135
0.620261
-0.0115545
0.011706
-0.741819
0.741668
-0.0114363
0.0107924
-0.886282
0.886926
-0.00964728
0.00821874
-1.05923
1.06066
-0.00624203
0.0040949
-1.26708
1.26922
-0.00141133
-0.00130614
-1.51839
1.5211
0.00399303
-0.00658536
-1.51886
1.52145
0.00861005
-0.01044
-1.26856
1.27039
0.0117275
-0.0126733
-1.06066
1.0616
0.0131294
-0.0131953
-0.887456
0.887522
0.0128611
-0.0120931
-0.742795
0.742027
0.0110575
-0.00962329
-0.621563
0.620129
0.00809538
-0.00625667
-0.519715
0.517876
0.00451917
-0.00271232
-0.430415
0.428609
0.00137735
-0.000443065
-0.308401
0.307467
7.05299e-05
-0.0687839
0.0687134
-0.0689137
0.0688694
4.42873e-05
-0.000629805
0.0011923
-0.344991
0.344429
-0.00195836
0.00272175
-0.430867
0.430103
-0.00357301
0.00432564
-0.516936
0.516184
-0.00507921
0.00565114
-0.619525
0.618953
-0.00610844
0.00633868
-0.741435
0.741205
-0.00634465
0.00609411
-0.887322
0.887573
-0.0055087
0.00467783
-1.06175
1.06258
-0.00343515
0.00201529
-1.27099
1.27241
-0.000221733
-0.00160556
-1.52333
1.52516
0.0034029
-0.00508262
-1.52355
1.52523
0.00630625
-0.00729388
-1.27175
1.27274
0.00791914
-0.00827438
-1.06221
1.06256
0.00830706
-0.0080619
-0.887375
0.88713
0.0076165
-0.00693133
-0.741264
0.740579
0.00616583
-0.00522526
-0.618947
0.618006
0.00431537
-0.00330292
-0.516514
0.515502
0.00240253
-0.00149911
-0.427354
0.426451
0.000826432
-0.000319178
-0.306802
0.306294
7.66042e-05
-0.0686424
0.0685658
-0.0688427
0.068833
9.63836e-06
-0.000271299
0.00053729
-0.344037
0.343771
-0.000901414
0.0012681
-0.429572
0.429205
-0.00168448
0.00206115
-0.515646
0.515269
-0.00244957
0.00275702
-0.618525
0.618218
-0.00301607
0.00315674
-0.741013
0.740873
-0.00317374
0.00303699
-0.887745
0.887882
-0.00269063
0.00217797
-1.06322
1.06374
-0.00138793
0.000466335
-1.27355
1.27447
0.000720027
-0.00193431
-1.52666
1.52787
0.00310397
-0.00414904
-1.52656
1.52761
0.0048577
-0.00535912
-1.27345
1.27395
0.00561078
-0.00567245
-1.06274
1.06281
0.00554617
-0.0052443
-0.886843
0.886542
0.004851
-0.004328
-0.73998
0.739457
0.00379474
-0.00317982
-0.617252
0.616637
0.00261218
-0.00200219
-0.514727
0.514117
0.00147249
-0.000944793
-0.425772
0.425244
0.000543304
-0.000223561
-0.305896
0.305576
5.74235e-05
-0.0684988
0.0684413
-0.0688349
0.068846
-1.11444e-05
-4.94707e-05
0.000151117
-0.343598
0.343497
-0.000300566
0.000453561
-0.428961
0.428808
-0.000627248
0.000783086
-0.515017
0.514861
-0.000941121
0.00106183
-0.618012
0.617891
-0.00115354
0.00118429
-0.740787
0.740756
-0.0011399
0.00100948
-0.888008
0.888138
-0.000746995
0.000384835
-1.06416
1.06452
0.000155942
-0.000776269
-1.27522
1.27584
0.00156975
-0.00236308
-1.52885
1.52965
0.00309701
-0.00371141
-1.52842
1.52903
0.00408446
-0.00430104
-1.27429
1.27451
0.00435372
-0.00426484
-1.06278
1.06269
0.00407363
-0.00377156
-0.886237
0.885935
0.00343558
-0.00302557
-0.738998
0.738588
0.00263144
-0.00219463
-0.616125
0.615689
0.00180276
-0.00139026
-0.513623
0.513211
0.0010366
-0.000684183
-0.42482
0.424468
0.000409833
-0.000179871
-0.30531
0.305081
5.03149e-05
-0.0683888
0.0683385
-0.0688664
0.068895
-2.86172e-05
8.74178e-05
-8.99243e-05
-0.343453
0.343455
7.32606e-05
-5.2725e-05
-0.428727
0.428706
3.18627e-05
-1.88055e-05
-0.514782
0.514769
1.62516e-05
-3.06688e-05
-0.617843
0.617857
7.28102e-05
-0.000144493
-0.740778
0.740849
0.00027054
-0.000439646
-0.888284
0.888454
0.000695381
-0.00100068
-1.06485
1.06515
0.00141758
-0.0018675
-1.27636
1.27681
0.00241634
-0.00293411
-1.53029
1.5308
0.00337882
-0.00371252
-1.52949
1.52983
0.00387967
-0.00390275
-1.27461
1.27464
0.00381797
-0.00363511
-1.06255
1.06237
0.0034025
-0.00309694
-0.885634
0.885328
0.00278873
-0.00243506
-0.738213
0.737859
0.00210878
-0.00175746
-0.615304
0.614952
0.00144853
-0.00112765
-0.512854
0.512533
0.000854194
-0.000580326
-0.424163
0.423889
0.000361429
-0.00016804
-0.304874
0.30468
5.03704e-05
-0.0682889
0.0682386
-0.0689307
0.0689737
-4.29763e-05
0.000208915
-0.000280079
-0.343489
0.343561
0.000355573
-0.00042882
-0.428737
0.428811
0.000517576
-0.000609046
-0.514813
0.514904
0.00072343
-0.000844077
-0.617928
0.618048
0.000998165
-0.00116302
-0.740969
0.741133
0.00137537
-0.00160277
-0.88865
0.888877
0.00189297
-0.0021961
-1.06545
1.06575
0.00256743
-0.00293184
-1.27721
1.27757
0.00333758
-0.00367972
-1.53122
1.53157
0.00392887
-0.00405561
-1.53005
1.53017
0.00405162
-0.00396468
-1.27461
1.27452
0.00378653
-0.00352841
-1.06215
1.06189
0.00325211
-0.0029228
-0.885013
0.884684
0.00261035
-0.00226627
-0.737515
0.737171
0.0019579
-0.00163264
-0.61462
0.614295
0.00135084
-0.00106088
-0.512233
0.511943
0.000814721
-0.000566814
-0.423633
0.423385
0.000363984
-0.000176634
-0.304493
0.304306
5.55353e-05
-0.0681862
0.0681307
-0.0690253
0.069086
-6.06811e-05
0.000323591
-0.000461567
-0.343668
0.343806
0.000615761
-0.000766328
-0.428923
0.429073
0.00094602
-0.00112542
-0.51504
0.51522
0.0013405
-0.00155542
-0.618216
0.618431
0.0018125
-0.00206872
-0.741343
0.7416
0.00237383
-0.00267473
-0.889139
0.88944
0.00302685
-0.00336434
-1.06607
1.06641
0.00374204
-0.00407849
-1.27792
1.27826
0.00441192
-0.00464819
-1.53185
1.53208
0.00476836
-0.00475711
-1.53023
1.53021
0.00463736
-0.00440917
-1.27436
1.27413
0.00414655
-0.00381054
-1.0616
1.06126
0.00347828
-0.00310112
-0.884334
0.883957
0.00275566
-0.00238458
-0.736818
0.736447
0.00205813
-0.0017184
-0.613967
0.613627
0.00142675
-0.00112854
-0.511653
0.511355
0.000875955
-0.000620429
-0.423137
0.422882
0.000407287
-0.000203459
-0.304113
0.303909
6.58675e-05
-0.0680706
0.0680047
-0.069156
0.0692361
-8.01114e-05
0.000444264
-0.000646145
-0.343975
0.344177
0.000878199
-0.00110581
-0.429262
0.42949
0.00137602
-0.00164335
-0.515442
0.51571
0.00196003
-0.00227164
-0.618693
0.619005
0.00263757
-0.00299336
-0.741904
0.74226
0.00340493
-0.0037967
-0.889784
0.890176
0.00423677
-0.0046383
-1.06677
1.06718
0.00506188
-0.00541191
-1.27859
1.27894
0.00572231
-0.00589827
-1.53229
1.53246
0.00592759
-0.00580192
-1.53014
1.53002
0.00557618
-0.00523684
-1.27385
1.27351
0.00487294
-0.00443884
-1.06088
1.06044
0.00402664
-0.00357219
-0.883545
0.883091
0.00316434
-0.00273285
-0.736049
0.735618
0.00235744
-0.00196971
-0.613267
0.61288
0.00163866
-0.00130141
-0.511041
0.510704
0.00101627
-0.000726887
-0.422612
0.422323
0.000482662
-0.000244581
-0.30369
0.303452
8.02858e-05
-0.0679321
0.0678518
-0.0693276
0.0694322
-0.000104532
0.000588527
-0.000862129
-0.344413
0.344687
0.00117935
-0.00149115
-0.429758
0.43007
0.00186102
-0.00222587
-0.516024
0.516389
0.0026562
-0.00307718
-0.619369
0.61979
0.0035675
-0.00403957
-0.742671
0.743143
0.0045785
-0.00508347
-0.890621
0.891126
0.0056392
-0.00613339
-1.06762
1.06811
0.00663706
-0.00703329
-1.27931
1.27971
0.00735583
-0.00749975
-1.53262
1.53276
0.00745728
-0.00722567
-1.52984
1.52961
0.0068897
-0.00642668
-1.27311
1.27265
0.00594943
-0.00539459
-1.05995
1.0594
0.00487767
-0.00431567
-0.882586
0.882024
0.00381643
-0.00329258
-0.735144
0.73462
0.00283936
-0.00237353
-0.612456
0.611991
0.00197701
-0.00157401
-0.510337
0.509934
0.00123347
-0.000887145
-0.422008
0.421662
0.000592838
-0.000302793
-0.30319
0.3029
0.000100184
-0.0677623
0.0676621
-0.0695512
0.0696867
-0.000135504
0.000767505
-0.00112768
-0.345001
0.345362
0.00154667
-0.00195857
-0.430429
0.430841
0.00244667
-0.00292743
-0.516809
0.51729
0.00349335
-0.00404539
-0.620273
0.620825
0.00468606
-0.00529992
-0.743682
0.744296
0.0059965
-0.00664391
-0.891698
0.892346
0.00734894
-0.00796722
-1.06867
1.06928
0.00858502
-0.00905681
-1.28014
1.28061
0.00941911
-0.00954898
-1.5329
1.53303
0.00944232
-0.0090999
-1.52932
1.52898
0.00864051
-0.00802934
-1.27211
1.2715
0.00741221
-0.00670405
-1.05877
1.05806
0.00605097
-0.00534609
-0.881396
0.880691
0.00472362
-0.00407281
-0.734038
0.733387
0.00351148
-0.00293561
-0.611474
0.610898
0.00244635
-0.00194965
-0.509487
0.508991
0.00153013
-0.00110325
-0.421278
0.420851
0.000739389
-0.000378949
-0.302577
0.302217
0.000125743
-0.0675499
0.0674241
-0.0698409
0.0700163
-0.000175461
0.000994947
-0.0014631
-0.345772
0.346241
0.00200829
-0.00254432
-0.431311
0.431847
0.00317927
-0.00380405
-0.517838
0.518463
0.00453855
-0.00525383
-0.621454
0.62217
0.00608221
-0.00687357
-0.744994
0.745785
0.00776828
-0.00859589
-0.893078
0.893905
0.00949164
-0.0102706
-1.06998
1.07076
0.0110399
-0.0116162
-1.28113
1.28171
0.0120415
-0.0121674
-1.53316
1.53328
0.0119924
-0.0115221
-1.52858
1.52811
0.0109139
-0.01012
-1.2708
1.27001
0.00932712
-0.00842405
-1.05726
1.05636
0.00759571
-0.00670509
-0.879899
0.879008
0.00592097
-0.00510319
-0.732658
0.73184
0.00439922
-0.00367816
-0.610255
0.609534
0.0030661
-0.00244489
-0.508436
0.507815
0.00192015
-0.0013858
-0.420374
0.41984
0.000929673
-0.000476865
-0.301813
0.30136
0.000158272
-0.0672832
0.0671249
-0.0702162
0.0704441
-0.000227887
0.00128946
-0.00189544
-0.346773
0.347379
0.00260108
-0.00329472
-0.432457
0.433151
0.00411589
-0.00492325
-0.519173
0.519981
0.00587147
-0.00679377
-0.622982
0.623904
0.00786005
-0.00887672
-0.746682
0.747699
0.0100229
-0.0110795
-0.894841
0.895897
0.0122176
-0.0132013
-1.07163
1.07262
0.0141641
-0.0148753
-1.28235
1.28306
0.0153841
-0.0155094
-1.53341
1.53353
0.0152525
-0.014624
-1.52756
1.52693
0.0138305
-0.0128063
-1.26911
1.26808
0.0117904
-0.0106391
-1.05534
1.05419
0.00958641
-0.00845767
-0.878006
0.876877
0.00746546
-0.00643222
-0.730921
0.729888
0.00554368
-0.00463425
-0.608724
0.607814
0.00386275
-0.00308026
-0.507118
0.506336
0.00241963
-0.00174689
-0.419241
0.418568
0.00117227
-0.000601353
-0.300852
0.300281
0.000199489
-0.0669472
0.0667477
-0.0707041
0.0710012
-0.000297104
0.0016743
-0.00245859
-0.348069
0.348853
0.00337128
-0.00426828
-0.43394
0.434837
0.00532928
-0.0063717
-0.520898
0.521941
0.0075946
-0.00878234
-0.624951
0.626139
0.0101531
-0.0114571
-0.74885
0.750154
0.0129234
-0.0142702
-0.89709
0.898437
0.0157147
-0.0169559
-1.07372
1.07496
0.0181607
-0.0190389
-1.28385
1.28473
0.0196491
-0.0197693
-1.53366
1.53378
0.0194054
-0.018574
-1.52621
1.52538
0.0175438
-0.0162263
-1.26692
1.2656
0.014927
-0.0134597
-1.05289
1.05142
0.0121218
-0.0106898
-0.875606
0.874174
0.00943297
-0.00812547
-0.728726
0.727418
0.00700181
-0.0058523
-0.606792
0.605643
0.00487739
-0.00388884
-0.505456
0.504468
0.00305435
-0.00220461
-0.417812
0.416962
0.00147883
-0.000758
-0.29964
0.298919
0.000251142
-0.066524
0.0662728
-0.0713414
0.0717313
-0.000389902
0.00218398
-0.00320157
-0.349746
0.350763
0.00438436
-0.00554626
-0.435857
0.437019
0.00691906
-0.00826623
-0.523125
0.524472
0.00984443
-0.0113748
-0.627487
0.629017
0.0131371
-0.0148094
-0.751631
0.753303
0.0166834
-0.0183979
-0.899957
0.901671
0.020227
-0.0217882
-1.07635
1.07792
0.0232893
-0.024367
-1.2857
1.28678
0.0250902
-0.0251901
-1.53389
1.53399
0.0246796
-0.0235831
-1.52442
1.52333
0.0222489
-0.0205575
-1.26411
1.26242
0.018898
-0.0170302
-1.04976
1.0479
0.0153309
-0.0135149
-0.872561
0.870745
0.0119229
-0.0102678
-0.725947
0.724292
0.00884619
-0.00739246
-0.60435
0.602897
0.00616003
-0.00491056
-0.503357
0.502107
0.00385587
-0.00278194
-0.416007
0.414933
0.00186484
-0.000954679
-0.298109
0.297199
0.000315711
-0.065991
0.0656753
-0.0721802
0.0726969
-0.000516728
0.00287002
-0.00419706
-0.351924
0.353251
0.00573642
-0.00724718
-0.438343
0.439853
0.00902924
-0.0107754
-0.526006
0.527752
0.0128169
-0.0147918
-0.630755
0.63273
0.0170596
-0.0192038
-0.755197
0.757341
0.0215963
-0.0237734
-0.903604
0.905781
0.0260804
-0.0280324
-1.07966
1.08162
0.0298864
-0.0311919
-1.28797
1.28927
0.0320283
-0.0320761
-1.53407
1.53412
0.0313591
-0.0299132
-1.52207
1.52062
0.0281877
-0.0260205
-1.26051
1.25834
0.0239058
-0.0215328
-1.04579
1.04342
0.0193782
-0.0170785
-0.868701
0.866402
0.0150639
-0.0129707
-0.722431
0.720337
0.0111735
-0.00933599
-0.601262
0.599424
0.00777836
-0.00619915
-0.500702
0.499123
0.00486604
-0.00350867
-0.413726
0.412368
0.00235002
-0.00120134
-0.296176
0.295028
0.000396457
-0.0653217
0.0649253
-0.0732965
0.07399
-0.000693492
0.00381069
-0.00555618
-0.354767
0.356513
0.00757507
-0.00955273
-0.441578
0.443555
0.0118783
-0.0141505
-0.529743
0.532015
0.0167991
-0.0193529
-0.634977
0.637531
0.0222736
-0.0250219
-0.75977
0.762518
0.0280699
-0.0308227
-0.908231
0.910984
0.0337124
-0.0361282
-1.08379
1.08621
0.0383847
-0.0399319
-1.2907
1.29225
0.0408583
-0.0407954
-1.53412
1.53406
0.0397844
-0.0378773
-1.51896
1.51705
0.0356498
-0.0328817
-1.25589
1.25312
0.0301949
-0.0271905
-1.04075
1.03774
0.0244673
-0.0215634
-0.863816
0.860912
0.0190206
-0.0163788
-0.717984
0.715343
0.0141102
-0.0117903
-0.597359
0.595039
0.00982301
-0.00782788
-0.497348
0.495353
0.00614303
-0.00442702
-0.410843
0.409127
0.00296249
-0.0015121
-0.293738
0.292287
0.000497902
-0.064481
0.0639831
-0.0748053
0.0757576
-0.000952249
0.00515274
-0.00748476
-0.358505
0.360837
0.0101648
-0.0127756
-0.445816
0.448427
0.0158262
-0.0187935
-0.53462
0.537587
0.022237
-0.0255433
-0.640447
0.643753
0.0293047
-0.0328203
-0.765632
0.769148
0.0366856
-0.0401393
-0.914071
0.917525
0.0437157
-0.0466554
-1.08888
1.09182
0.0493374
-0.0511065
-1.29391
1.29568
0.0520561
-0.0517822
-1.5339
1.53363
0.0503523
-0.0478392
-1.51486
1.51235
0.0449764
-0.0414593
-1.25
1.24648
0.0380669
-0.0342838
-1.03437
1.03058
0.0308594
-0.0272086
-0.857652
0.854001
0.0240113
-0.0206876
-0.712375
0.709051
0.0178319
-0.0149089
-0.592432
0.589509
0.0124274
-0.00990718
-0.493112
0.490592
0.00777536
-0.00560103
-0.407202
0.405027
0.0037446
-0.00190836
-0.290659
0.288822
0.000627349
-0.0634246
0.0627972
-0.0768881
0.0782574
-0.00136932
0.00721271
-0.0104089
-0.363468
0.366664
0.0140195
-0.0174858
-0.451427
0.454893
0.0214895
-0.025362
-0.541035
0.544907
0.0298352
-0.0341117
-0.64756
0.651837
0.038945
-0.04342
-0.773129
0.777604
0.048277
-0.0525484
-0.921369
0.925641
0.056885
-0.0603634
-1.09502
1.0985
0.0634303
-0.0653374
-1.29753
1.29944
0.0661721
-0.065527
-1.53319
1.53255
0.0635062
-0.0602082
-1.50947
1.50617
0.0565543
-0.0521256
-1.24253
1.2381
0.0478822
-0.0431637
-1.02635
1.02163
0.0388954
-0.034342
-0.849911
0.845358
0.0303491
-0.0261919
-0.705316
0.701159
0.0226137
-0.0189441
-0.586218
0.582548
0.0158208
-0.0126379
-0.487762
0.484579
0.00993308
-0.00716128
-0.402599
0.399827
0.00478706
-0.00243881
-0.286767
0.284419
0.00080311
-0.0620939
0.0612908
-0.0798477
0.0819894
-0.00214174
0.0107282
-0.0152126
-0.370174
0.374658
0.0200894
-0.0246458
-0.458995
0.463552
0.0298444
-0.0348697
-0.549575
0.5546
0.0406679
-0.0461891
-0.65683
0.662351
0.0523734
-0.0580128
-0.782636
0.788276
0.0640093
-0.0691568
-0.930311
0.935459
0.0742349
-0.0781661
-1.10219
1.10613
0.0814603
-0.0833166
-1.30133
1.30319
0.0837966
-0.0825426
-1.53162
1.53037
0.0797049
-0.0754121
-1.5024
1.49811
0.0708014
-0.0653002
-1.23315
1.22765
0.0600697
-0.0542707
-1.01638
1.01058
0.0490277
-0.0434268
-0.840267
0.834666
0.0385053
-0.0333667
-0.69647
0.691331
0.0289313
-0.0243682
-0.57838
0.573817
0.0204665
-0.0164633
-0.480986
0.476983
0.0130248
-0.00945262
-0.396768
0.393195
0.00634669
-0.00324735
-0.281836
0.278737
0.00108042
-0.0604071
0.0593267
-0.0842762
0.0880188
-0.00374262
0.0173357
-0.0235984
-0.379598
0.385861
0.030025
-0.0358991
-0.469482
0.475356
0.0426048
-0.0491415
-0.561033
0.56757
0.0566929
-0.0637956
-0.668804
0.675906
0.0715829
-0.0784874
-0.79442
0.801324
0.0855911
-0.091477
-0.940855
0.946741
0.0970541
-0.101153
-1.11008
1.11418
0.104317
-0.105777
-1.30482
1.30628
0.105522
-0.103327
-1.52864
1.52645
0.0993931
-0.0938758
-1.4932
1.48768
0.0881503
-0.0814462
-1.22153
1.21483
0.0751345
-0.0681673
-1.00417
0.997206
0.061874
-0.0551437
-0.82842
0.82169
0.0492147
-0.0430027
-0.685483
0.67927
0.0376189
-0.0320587
-0.568508
0.562947
0.027273
-0.0223075
-0.472347
0.467381
0.0179609
-0.0133023
-0.389302
0.384643
0.00907332
-0.0047121
-0.275535
0.271174
0.00159272
-0.0582373
0.0566446
-0.0915396
0.0990324
-0.00749278
0.0315123
-0.0401339
-0.393661
0.402282
0.048244
-0.055733
-0.484216
0.491705
0.0644634
-0.0729445
-0.576169
0.58465
0.0825298
-0.0912053
-0.683765
0.69244
0.100308
-0.10802
-0.808323
0.816035
0.11561
-0.121604
-0.952457
0.95845
0.126968
-0.130589
-1.11789
1.12151
0.132949
-0.133428
-1.30716
1.30764
0.131871
-0.128283
-1.52349
1.5199
0.122908
-0.115925
-1.48138
1.4744
0.108946
-0.100963
-1.20743
1.19945
0.0935458
-0.0854251
-0.989579
0.981459
0.0781136
-0.0702988
-0.814228
0.806413
0.0634056
-0.0561652
-0.672137
0.664896
0.0498669
-0.0433279
-0.556242
0.549703
0.037654
-0.0317063
-0.461308
0.45536
0.0263549
-0.0201946
-0.37954
0.373379
0.0140345
-0.00723531
-0.267121
0.260322
0.00237288
-0.0553171
0.0529442
-0.106935
0.109362
-0.0024268
0.0183001
-0.0265246
-0.41483
0.423055
0.034905
-0.0432644
-0.504
0.512359
0.0532876
-0.0634604
-0.59475
0.604923
0.0744681
-0.0842338
-0.700914
0.71068
0.0950365
-0.104545
-0.823092
0.832601
0.11437
-0.122755
-0.963639
0.972025
0.131053
-0.137661
-1.12419
1.1308
0.143518
-0.147339
-1.30708
1.3109
0.149378
-0.148804
-1.51522
1.51464
0.145501
-0.139849
-1.46645
1.4608
0.133172
-0.124634
-1.19072
1.18219
0.116237
-0.106083
-0.972685
0.962532
0.0966585
-0.0861529
-0.797894
0.787389
0.0766263
-0.0663702
-0.656664
0.646408
0.0570191
-0.0473721
-0.541747
0.5321
0.0391775
-0.0302895
-0.447775
0.438888
0.0224208
-0.0139697
-0.366614
0.358163
0.00693919
-0.00169968
-0.254262
0.249023
-0.000339363
-0.0506557
0.0509951
-0.11645
0.110957
0.00549286
-0.00474448
-0.000826635
-0.435258
0.440829
0.00856908
-0.0161322
-0.523819
0.531383
0.0254415
-0.0341061
-0.615068
0.623733
0.0438303
-0.0526546
-0.720421
0.729245
0.0620296
-0.0704926
-0.841649
0.850112
0.0792518
-0.0864606
-0.980133
0.987341
0.0937869
-0.0993332
-1.13731
1.14286
0.104212
-0.107162
-1.31461
1.31756
0.108163
-0.106945
-1.51358
1.51237
0.103252
-0.0975155
-1.45478
1.44904
0.090848
-0.0826534
-1.17365
1.16546
0.074816
-0.0658652
-0.952641
0.94369
0.0575027
-0.0482153
-0.776873
0.767586
0.0399257
-0.031428
-0.635345
0.626848
0.0242297
-0.0168965
-0.520893
0.51356
0.0107875
-0.00491367
-0.427506
0.421632
0.000309859
0.00371157
-0.34749
0.343468
-0.0056212
0.00509355
-0.240692
0.24122
-0.0026322
-0.0488642
0.0514964
-0.112717
0.108519
0.00419786
-0.00834314
0.00541962
-0.450298
0.453222
-0.000525259
-0.00518896
-0.540751
0.546465
0.0123129
-0.0193147
-0.632392
0.639394
0.0272267
-0.0344865
-0.737472
0.744732
0.0424345
-0.0494924
-0.857803
0.86486
0.0566075
-0.0628095
-0.994301
1.0005
0.0689597
-0.0737156
-1.14802
1.15277
0.0775296
-0.0796305
-1.32001
1.32211
0.0802605
-0.0787759
-1.5108
1.50932
0.0751491
-0.0698678
-1.44322
1.43794
0.0639922
-0.0571583
-1.1578
1.15096
0.0504575
-0.0432226
-0.935216
0.927982
0.036643
-0.0295209
-0.759427
0.752305
0.0235038
-0.0173743
-0.618851
0.612721
0.0124152
-0.00737634
-0.505657
0.500618
0.00358893
-0.000258446
-0.413954
0.410623
-0.00215355
0.00408326
-0.336544
0.334614
-0.00465968
0.00345731
-0.235291
0.236493
-0.00171382
-0.0500585
0.0517723
-0.109888
0.106656
0.0032312
-0.00793853
0.00648109
-0.460608
0.462066
-0.00312322
-0.00139139
-0.553328
0.557843
0.00716764
-0.0126095
-0.645943
0.651385
0.0189303
-0.0247743
-0.751553
0.757397
0.0311747
-0.0368961
-0.871325
0.877046
0.043036
-0.0480411
-1.0062
1.0112
0.0532081
-0.0567775
-1.1571
1.16067
0.0598994
-0.0615339
-1.32408
1.32571
0.0617393
-0.0599811
-1.50768
1.50593
0.056777
-0.0522771
-1.43266
1.42816
0.0473313
-0.0414101
-1.14454
1.13862
0.0360073
-0.0303034
-0.921187
0.915483
0.0250583
-0.0197557
-0.745937
0.740634
0.0149847
-0.0103607
-0.606727
0.602103
0.00659054
-0.00305302
-0.495188
0.491651
0.000465107
0.00184202
-0.405153
0.402846
-0.00346397
0.00431331
-0.329381
0.328531
-0.00452472
0.00319739
-0.231478
0.232805
-0.00150674
-0.0501721
0.0516788
-0.108695
0.106344
0.00235117
-0.00631262
0.0056452
-0.468087
0.468755
-0.00277752
-0.000725401
-0.563318
0.566821
0.00514504
-0.00978634
-0.656715
0.661356
0.0148272
-0.0197453
-0.762748
0.767666
0.0250245
-0.0297607
-0.88228
0.887016
0.0347813
-0.0390356
-1.01598
1.02024
0.043183
-0.046317
-1.16404
1.16718
0.0487995
-0.0499915
-1.32703
1.32822
0.0499044
-0.0481071
-1.50417
1.50237
0.0451376
-0.0409751
-1.42339
1.41923
0.0367006
-0.0318138
-1.13313
1.12824
0.0273423
-0.0225544
-0.910023
0.905235
0.0183732
-0.0140649
-0.735569
0.731261
0.0103874
-0.00671586
-0.59762
0.593948
0.00380333
-0.00109205
-0.487471
0.48476
-0.00102828
0.00276882
-0.398751
0.397011
-0.00369074
0.00433203
-0.324389
0.323748
-0.00440593
0.00288354
-0.228528
0.230051
-0.00136761
-0.0502637
0.0516313
-0.108575
0.106531
0.00204426
-0.00520496
0.00439404
-0.474036
0.474847
-0.00222079
-0.000916906
-0.570903
0.574041
0.00506552
-0.00890709
-0.665499
0.669341
0.0131269
-0.0172848
-0.772002
0.77616
0.0218388
-0.025939
-0.891406
0.895507
0.0303885
-0.0339503
-1.02416
1.02772
0.0374979
-0.0401364
-1.16995
1.17259
0.0420866
-0.0428634
-1.3291
1.32988
0.0424217
-0.0408162
-1.5005
1.4989
0.0378638
-0.0341208
-1.41487
1.41112
0.0302394
-0.0258914
-1.12349
1.11915
0.0222038
-0.0179896
-0.900674
0.89646
0.0144033
-0.0108873
-0.727174
0.723658
0.00784144
-0.00481307
-0.590488
0.587459
0.00238506
2.64033e-05
-0.481513
0.479102
-0.00158954
0.00294858
-0.393746
0.392387
-0.00387184
0.00425848
-0.320256
0.319869
-0.00409383
0.00273597
-0.226304
0.227662
-0.00125275
-0.0503534
0.0516061
-0.108793
0.107168
0.00162473
-0.00399477
0.00320793
-0.479394
0.48018
-0.000902581
-0.00175014
-0.577797
0.58045
0.00555416
-0.00903858
-0.673048
0.676533
0.013097
-0.0166619
-0.780122
0.783687
0.0206297
-0.0242062
-0.899586
0.903163
0.0283706
-0.0314972
-1.03125
1.03437
0.0344549
-0.036773
-1.17494
1.17726
0.0386623
-0.0390823
-1.33054
1.33096
0.0384079
-0.0364969
-1.49681
1.4949
0.0337321
-0.0298181
-1.40721
1.4033
0.026288
-0.0224075
-1.11481
1.11093
0.0189577
-0.015377
-0.892504
0.888923
0.0121982
-0.00897048
-0.720104
0.716876
0.00655206
-0.003864
-0.58445
0.581762
0.00165382
0.000290414
-0.476411
0.474467
-0.00177378
0.00310545
-0.389766
0.388434
-0.00379683
0.0040568
-0.317052
0.316792
-0.00380101
0.00254925
-0.224512
0.225764
-0.00118921
-0.0504738
0.051663
-0.10946
0.108123
0.001337
-0.00291468
0.00212824
-0.484329
0.485115
0.000389811
-0.00307185
-0.584036
0.586718
0.00662155
-0.00980804
-0.679947
0.683134
0.0133586
-0.0168932
-0.787375
0.790909
0.0206148
-0.0243795
-0.906596
0.91036
0.0278907
-0.0308217
-1.03753
1.04046
0.0338096
-0.0357499
-1.17935
1.18129
0.0369392
-0.0374207
-1.33107
1.33155
0.036463
-0.0343419
-1.49279
1.49067
0.0312709
-0.0274913
-1.39944
1.39566
0.0239877
-0.0202299
-1.1068
1.10304
0.0170447
-0.0137118
-0.885352
0.882019
0.0108302
-0.00807571
-0.713842
0.711088
0.00564899
-0.00333178
-0.579086
0.576769
0.00147507
0.000416436
-0.472195
0.470304
-0.00184634
0.00283857
-0.386147
0.385155
-0.00351927
0.00381753
-0.314282
0.313984
-0.00359813
0.00239973
-0.223084
0.224283
-0.0011451
-0.050725
0.0518701
-0.110555
0.109368
0.0011875
-0.00172883
0.000687379
-0.489156
0.490197
0.0018131
-0.00456724
-0.590024
0.592778
0.00789406
-0.0111101
-0.68656
0.689776
0.0146731
-0.0179839
-0.794411
0.797722
0.0219467
-0.0250753
-0.913644
0.916773
0.0286165
-0.0313765
-1.04349
1.04625
0.034184
-0.0361448
-1.18307
1.18503
0.0373005
-0.0371771
-1.33153
1.33141
0.0359436
-0.0335238
-1.4881
1.48568
0.0303566
-0.0262244
-1.3915
1.38737
0.0226567
-0.0188776
-1.09931
1.09553
0.0158047
-0.0125777
-0.878562
0.875335
0.00997548
-0.0073352
-0.708254
0.705614
0.00512712
-0.00296962
-0.574418
0.57226
0.00117684
0.000345193
-0.468264
0.466742
-0.00171962
0.00268021
-0.382975
0.382015
-0.0034171
0.00364189
-0.311786
0.311561
-0.00335999
0.00234956
-0.221851
0.222861
-0.00106154
-0.0510587
0.0521203
-0.111787
0.110948
0.000838853
-0.000729342
-0.000867813
-0.494111
0.495708
0.00325885
-0.00608474
-0.59559
0.598416
0.00922144
-0.0124816
-0.693
0.69626
0.0160763
-0.0196743
-0.801056
0.804654
0.0232376
-0.0266344
-0.920144
0.923541
0.0302319
-0.0328343
-1.04938
1.05199
0.0356724
-0.0374427
-1.18665
1.18842
0.038339
-0.0382559
-1.33135
1.33127
0.0367604
-0.0337625
-1.48279
1.4798
0.0299436
-0.0256138
-1.38299
1.37866
0.0219214
-0.0179813
-1.0915
1.08756
0.0148111
-0.0118635
-0.872102
0.869154
0.00907416
-0.00675963
-0.702885
0.70057
0.00474434
-0.0027
-0.570295
0.568251
0.001203
0.000297492
-0.464743
0.463242
-0.00148132
0.00256271
-0.380313
0.379231
-0.00315171
0.00337647
-0.3096
0.309375
-0.0032561
0.00229517
-0.220855
0.221816
-0.00104873
-0.0514039
0.0524527
-0.113354
0.112708
0.000645842
0.000104918
-0.00169651
-0.499283
0.500874
0.00472305
-0.00737484
-0.601481
0.604133
0.0107922
-0.0140959
-0.699318
0.702621
0.0177509
-0.0211684
-0.808082
0.811499
0.0250326
-0.0282909
-0.927005
0.930264
0.0319719
-0.0350411
-1.05498
1.05804
0.0375369
-0.0394915
-1.19008
1.19203
0.0404782
-0.0400096
-1.33073
1.33026
0.0380826
-0.0348196
-1.47639
1.47312
0.0303105
-0.0255076
-1.37367
1.36887
0.0212512
-0.0171239
-1.08345
1.07932
0.013991
-0.0109824
-0.865895
0.862886
0.00846916
-0.00626385
-0.697974
0.695769
0.00443034
-0.00251715
-0.566287
0.564374
0.00106294
0.000214945
-0.461595
0.460317
-0.00144581
0.00241265
-0.377715
0.376748
-0.00302059
0.00327832
-0.30757
0.307313
-0.00308662
0.00215772
-0.220159
0.221088
-0.000976853
-0.0518757
0.0528526
-0.115148
0.114762
0.000385918
0.00126032
-0.0030109
-0.504641
0.506392
0.00588589
-0.00880862
-0.607253
0.610176
0.0122808
-0.0156046
-0.705762
0.709086
0.0195374
-0.0230058
-0.815019
0.818487
0.0269367
-0.0304842
-0.934037
0.937584
0.0342298
-0.0373813
-1.06095
1.0641
0.0401284
-0.0420408
-1.19377
1.19568
0.0429483
-0.0427118
-1.32968
1.32945
0.0403471
-0.0362586
-1.46909
1.465
0.0310973
-0.0252671
-1.36324
1.35741
0.0205853
-0.0162515