/*--------------------------------*- C++ -*----------------------------------*\
  =========                 |
  \\      /  F ield         | OpenFOAM: The Open Source CFD Toolbox
   \\    /   O peration     | Website:  https://openfoam.org
    \\  /    A nd           | Version:  9
     \\/     M anipulation  |
\*---------------------------------------------------------------------------*/
FoamFile
{
    format      ascii;
    class       volVectorField;
    location    "4";
    object      U;
}
// * * * * * * * * * * * * * * * * * * * * * * * * * * * * * * * * * * * * * //

dimensions      [0 1 -1 0 0 0 0];

internalField   nonuniform List<vector> 
8800
(
(0.978371 -0.0913436 0)
(1.00272 -0.0589113 0)
(0.999948 -0.0312222 0)
(1.00116 -0.0157263 0)
(1.00093 -0.00808872 0)
(1.00061 -0.00418565 0)
(1.00044 -0.00217224 0)
(1.00031 -0.00119983 0)
(1.00021 -0.00057897 0)
(0.999964 -9.27714e-05 0)
(1.00012 0.00033871 0)
(1.00027 0.00090378 0)
(1.00037 0.00163768 0)
(1.00054 0.002978 0)
(1.00077 0.00584513 0)
(1.00112 0.0112764 0)
(1.0009 0.0221672 0)
(0.998893 0.042445 0)
(1.00761 0.0797455 0)
(0.774781 0.0480672 0)
(0.366349 -0.0132728 0)
(1.04974 -0.0668662 0)
(1.09066 -0.0610974 0)
(1.05036 -0.0479766 0)
(1.02375 -0.0352552 0)
(1.00944 -0.0243056 0)
(1.00364 -0.0163185 0)
(1.00133 -0.0106009 0)
(1.00063 -0.00632621 0)
(1.00072 -0.00254138 0)
(1.00088 0.00103179 0)
(1.00054 0.00473668 0)
(1.00083 0.00858147 0)
(1.00215 0.013382 0)
(1.00586 0.0200611 0)
(1.01537 0.0295907 0)
(1.03534 0.0417005 0)
(1.06985 0.0545032 0)
(1.09663 0.06541 0)
(0.850123 0.0517915 0)
(0.249116 -0.000368768 0)
(1.07564 -0.0307163 0)
(1.08951 -0.0345815 0)
(1.05895 -0.0326091 0)
(1.03833 -0.0290928 0)
(1.02499 -0.0244313 0)
(1.01617 -0.0185093 0)
(1.01091 -0.0124215 0)
(1.0081 -0.00665961 0)
(1.00682 -0.00104372 0)
(1.00728 0.00449255 0)
(1.00917 0.010097 0)
(1.01302 0.0159588 0)
(1.01986 0.0219933 0)
(1.03074 0.0272638 0)
(1.04715 0.0311186 0)
(1.07284 0.0339653 0)
(1.09776 0.0342068 0)
(0.967515 0.0249544 0)
(0.248934 0.00037532 0)
(0.238817 0.000372192 0)
(1.03219 -0.00887154 0)
(1.06816 -0.018821 0)
(1.05194 -0.0243744 0)
(1.03745 -0.0252178 0)
(1.02673 -0.0227336 0)
(1.01896 -0.0185613 0)
(1.01365 -0.0133288 0)
(1.01043 -0.00744611 0)
(1.00893 -0.000939882 0)
(1.00937 0.00562772 0)
(1.01162 0.0116629 0)
(1.0158 0.0170834 0)
(1.02224 0.021634 0)
(1.03138 0.024869 0)
(1.0439 0.0258593 0)
(1.06022 0.0227189 0)
(1.06667 0.014584 0)
(0.91336 0.00390028 0)
(0.23848 -0.000363243 0)
(0.239467 -2.00504e-05 0)
(1.00974 -0.00365587 0)
(1.05124 -0.00944151 0)
(1.04669 -0.0140693 0)
(1.03978 -0.0164504 0)
(1.03278 -0.0166756 0)
(1.02648 -0.0148619 0)
(1.02131 -0.0113871 0)
(1.01762 -0.00664065 0)
(1.01586 -0.000675932 0)
(1.0163 0.00551485 0)
(1.0189 0.0107893 0)
(1.02318 0.014719 0)
(1.02888 0.017181 0)
(1.03556 0.0178225 0)
(1.04251 0.0162842 0)
(1.04892 0.0125294 0)
(1.04461 0.00686033 0)
(0.895986 0.00153944 0)
(0.238943 3.09329e-05 0)
(0.238624 1.64819e-05 0)
(0.998516 -0.00150563 0)
(1.03942 -0.00429759 0)
(1.03849 -0.00711754 0)
(1.03519 -0.00921708 0)
(1.03128 -0.0101529 0)
(1.02724 -0.00968737 0)
(1.02345 -0.00777519 0)
(1.02043 -0.00448661 0)
(1.01894 -4.36554e-05 0)
(1.01922 0.00459624 0)
(1.02137 0.00827079 0)
(1.02441 0.0106234 0)
(1.02825 0.0114807 0)
(1.03219 0.0109041 0)
(1.03573 0.00904842 0)
(1.03828 0.00628892 0)
(1.03153 0.00314254 0)
(0.887678 0.000679711 0)
(0.237835 -7.33545e-06 0)
(0.238355 -2.23743e-06 0)
(0.993915 -0.000771777 0)
(1.03427 -0.00203722 0)
(1.0346 -0.00344633 0)
(1.0331 -0.00468965 0)
(1.03102 -0.00543889 0)
(1.02852 -0.00543651 0)
(1.02589 -0.00445262 0)
(1.02357 -0.00237984 0)
(1.02224 0.000593399 0)
(1.02234 0.00369255 0)
(1.02386 0.00592294 0)
(1.02591 0.00706729 0)
(1.02829 0.00714546 0)
(1.03044 0.00635237 0)
(1.03212 0.00497198 0)
(1.03308 0.00332193 0)
(1.02565 0.00168799 0)
(0.883906 0.00044906 0)
(0.237365 1.32547e-05 0)
(0.238173 4.84905e-06 0)
(0.991645 -0.000342694 0)
(1.03169 -0.000943516 0)
(1.03239 -0.00163253 0)
(1.03161 -0.00227462 0)
(1.03042 -0.00270006 0)
(1.02888 -0.00272262 0)
(1.0271 -0.00214069 0)
(1.02539 -0.00082319 0)
(1.02422 0.00114432 0)
(1.0241 0.00316238 0)
(1.02498 0.00445784 0)
(1.02622 0.00492387 0)
(1.02756 0.00470703 0)
(1.02871 0.00400167 0)
(1.02954 0.00303761 0)
(1.02993 0.00200752 0)
(1.02237 0.00104571 0)
(0.881607 0.000308326 0)
(0.236905 1.11108e-05 0)
(0.238186 5.31019e-06 0)
(0.99065 -8.07992e-05 0)
(1.03051 -0.000328179 0)
(1.03139 -0.00061567 0)
(1.03093 -0.000877136 0)
(1.03019 -0.0010272 0)
(1.02917 -0.000950817 0)
(1.02792 -0.000511415 0)
(1.0266 0.00038794 0)
(1.02554 0.00170149 0)
(1.02519 0.00296763 0)
(1.02554 0.00365642 0)
(1.02617 0.00375606 0)
(1.02686 0.00341828 0)
(1.02743 0.00281282 0)
(1.02783 0.00209872 0)
(1.02795 0.00138743 0)
(1.02033 0.000744735 0)
(0.880073 0.000241106 0)
(0.236541 1.18969e-05 0)
(0.238326 1.21821e-05 0)
(0.990401 8.37702e-05 0)
(1.03012 5.3631e-05 0)
(1.03107 1.96228e-05 0)
(1.03076 1.56701e-05 0)
(1.03025 8.63641e-05 0)
(1.02951 0.000296063 0)
(1.02855 0.000721042 0)
(1.02745 0.00141188 0)
(1.02641 0.00231766 0)
(1.02581 0.00308546 0)
(1.02571 0.00341469 0)
(1.0259 0.00324523 0)
(1.02616 0.00282675 0)
(1.02638 0.00227025 0)
(1.02654 0.00167929 0)
(1.02652 0.00111797 0)
(1.01886 0.000621196 0)
(0.878879 0.000219586 0)
(0.236198 1.3475e-05 0)
(0.238575 1.43214e-05 0)
(0.990603 0.00021152 0)
(1.03027 0.000339814 0)
(1.03125 0.000486976 0)
(1.031 0.000676641 0)
(1.03058 0.000931816 0)
(1.02997 0.00128323 0)
(1.02913 0.00176291 0)
(1.02809 0.00237556 0)
(1.02697 0.00304216 0)
(1.02611 0.00347251 0)
(1.02566 0.00348164 0)
(1.02547 0.00317928 0)
(1.02542 0.00268194 0)
(1.02542 0.00211691 0)
(1.02543 0.00155809 0)
(1.02532 0.00104596 0)
(1.01763 0.000598457 0)
(0.877798 0.000226629 0)
(0.235835 1.60189e-05 0)
(0.238932 1.98866e-05 0)
(0.99122 0.00034073 0)
(1.03081 0.000598787 0)
(1.03179 0.000896962 0)
(1.03156 0.00125345 0)
(1.03117 0.00167908 0)
(1.03058 0.00218341 0)
(1.02974 0.00276424 0)
(1.02865 0.00338539 0)
(1.02735 0.00392972 0)
(1.02618 0.00413604 0)
(1.02539 0.00392075 0)
(1.0249 0.00345279 0)
(1.02461 0.00285522 0)
(1.02444 0.0022301 0)
(1.02433 0.00163798 0)
(1.02415 0.00110817 0)
(1.01644 0.000648265 0)
(0.876684 0.000257961 0)
(0.235419 1.97911e-05 0)
(0.239417 2.56845e-05 0)
(0.992199 0.000472263 0)
(1.03172 0.000859726 0)
(1.03269 0.001308 0)
(1.03244 0.00183253 0)
(1.03202 0.00243796 0)
(1.03138 0.00311753 0)
(1.03045 0.00384207 0)
(1.02919 0.00453699 0)
(1.02762 0.00504029 0)
(1.02608 0.00509047 0)
(1.02493 0.00469078 0)
(1.02416 0.00403832 0)
(1.02365 0.00329489 0)
(1.02333 0.00255685 0)
(1.02313 0.00187578 0)
(1.02289 0.0012746 0)
(1.01514 0.00075527 0)
(0.87542 0.000308172 0)
(0.234916 2.4579e-05 0)
(0.240052 3.32538e-05 0)
(0.993564 0.000627949 0)
(1.03302 0.00115706 0)
(1.03395 0.00177071 0)
(1.03366 0.00248367 0)
(1.03317 0.00329476 0)
(1.03241 0.0041844 0)
(1.03131 0.00509903 0)
(1.02979 0.00592388 0)
(1.02783 0.00644403 0)
(1.02584 0.00637084 0)
(1.02429 0.00577485 0)
(1.02321 0.00491793 0)
(1.02248 0.00398498 0)
(1.02201 0.00308122 0)
(1.02171 0.00225945 0)
(1.02142 0.00153911 0)
(1.01363 0.000919109 0)
(0.873909 0.00038021 0)
(0.234296 3.10254e-05 0)
(0.240877 4.29853e-05 0)
(0.995381 0.000820122 0)
(1.03475 0.00151877 0)
(1.03564 0.00232863 0)
(1.03528 0.00326597 0)
(1.03467 0.00432575 0)
(1.03375 0.00547526 0)
(1.03238 0.00663526 0)
(1.03049 0.00764635 0)
(1.02801 0.00822849 0)
(1.02545 0.00804421 0)
(1.02343 0.00722758 0)
(1.02199 0.00611857 0)
(1.02101 0.00493952 0)
(1.02038 0.00381228 0)
(1.01998 0.00279424 0)
(1.01963 0.00190499 0)
(1.01178 0.00114117 0)
(0.872045 0.000475329 0)
(0.233519 3.90129e-05 0)
(0.241945 5.56672e-05 0)
(0.997756 0.00106366 0)
(1.03701 0.00197234 0)
(1.03784 0.00302592 0)
(1.03738 0.00424251 0)
(1.03662 0.00561246 0)
(1.03545 0.0070888 0)
(1.03373 0.00856206 0)
(1.03133 0.00982056 0)
(1.02818 0.0105023 0)
(1.02491 0.0102005 0)
(1.0223 0.00911874 0)
(1.02044 0.00769353 0)
(1.01917 0.00619752 0)
(1.01835 0.0047774 0)
(1.01783 0.00350032 0)
(1.0174 0.00238839 0)
(1.00948 0.00143271 0)
(0.869714 0.000598051 0)
(0.232542 4.91298e-05 0)
(0.243331 7.24734e-05 0)
(1.00083 0.00137823 0)
(1.03995 0.00255388 0)
(1.0407 0.00391671 0)
(1.04011 0.00548708 0)
(1.03913 0.00725052 0)
(1.03763 0.00914156 0)
(1.03543 0.0110132 0)
(1.03236 0.012588 0)
(1.02835 0.0134025 0)
(1.02417 0.01296 0)
(1.02084 0.0115469 0)
(1.01846 0.00972049 0)
(1.01684 0.0078194 0)
(1.01578 0.00602269 0)
(1.01512 0.00441059 0)
(1.01461 0.00300903 0)
(1.0066 0.00180559 0)
(0.86678 0.000754213 0)
(0.231311 6.1838e-05 0)
(0.245134 9.48552e-05 0)
(1.00482 0.0017885 0)
(1.04375 0.00330859 0)
(1.04439 0.00507 0)
(1.04361 0.00709524 0)
(1.04235 0.00936159 0)
(1.04041 0.0117801 0)
(1.03757 0.0141552 0)
(1.03364 0.0161257 0)
(1.02852 0.017101 0)
(1.0232 0.0164749 0)
(1.01896 0.0146393 0)
(1.01594 0.012302 0)
(1.01388 0.00988509 0)
(1.01254 0.00760877 0)
(1.0117 0.00557044 0)
(1.01108 0.00379917 0)
(1.00296 0.00227924 0)
(0.863077 0.000951025 0)
(0.229761 7.77168e-05 0)
(0.247492 0.00012519 0)
(1.00998 0.00233088 0)
(1.04867 0.00430046 0)
(1.04915 0.00657976 0)
(1.04813 0.00919292 0)
(1.04647 0.0121064 0)
(1.04394 0.0151972 0)
(1.04027 0.0182046 0)
(1.03521 0.0206596 0)
(1.02866 0.0218144 0)
(1.02191 0.0209365 0)
(1.01655 0.0185571 0)
(1.01273 0.015571 0)
(1.01013 0.0125004 0)
(1.00844 0.00961624 0)
(1.00737 0.00703731 0)
(1.00662 0.00479771 0)
(0.998366 0.00287692 0)
(0.858401 0.00119878 0)
(0.22781 9.73408e-05 0)
(0.250602 0.000167196 0)
(1.01668 0.00305899 0)
(1.05505 0.00562198 0)
(1.05531 0.00858105 0)
(1.05395 0.0119605 0)
(1.05176 0.0157082 0)
(1.04844 0.0196533 0)
(1.04365 0.023446 0)
(1.03712 0.0264787 0)
(1.02876 0.027813 0)
(1.02021 0.0265808 0)
(1.01345 0.0235002 0)
(1.00865 0.0196926 0)
(1.00538 0.0157983 0)
(1.00324 0.0121488 0)
(1.00191 0.00888792 0)
(1.00099 0.00605752 0)
(0.992556 0.00362951 0)
(0.8525 0.00150959 0)
(0.22536 0.000121884 0)
(0.254751 0.000226739 0)
(1.02543 0.00405497 0)
(1.06334 0.00741624 0)
(1.0633 0.0112772 0)
(1.06146 0.0156599 0)
(1.05852 0.0204849 0)
(1.05412 0.0255091 0)
(1.04784 0.0302596 0)
(1.03939 0.0339526 0)
(1.02874 0.0354285 0)
(1.01796 0.0336912 0)
(1.00949 0.0297097 0)
(1.00347 0.0248699 0)
(0.999371 0.0199465 0)
(0.996683 0.0153395 0)
(0.994997 0.0112236 0)
(0.993867 0.00764935 0)
(0.985218 0.00458075 0)
(0.845053 0.00190158 0)
(0.222283 0.000152547 0)
(0.260388 0.0003162 0)
(1.0369 0.00547315 0)
(1.07415 0.00993517 0)
(1.07367 0.0149974 0)
(1.07114 0.0206933 0)
(1.06713 0.0269042 0)
(1.06121 0.0332741 0)
(1.05292 0.0391554 0)
(1.04199 0.0435482 0)
(1.02847 0.0450573 0)
(1.01497 0.0426001 0)
(1.00442 0.0374731 0)
(0.99692 0.0313554 0)
(0.991785 0.0251616 0)
(0.988406 0.0193678 0)
(0.986281 0.014187 0)
(0.984886 0.00967914 0)
(0.975957 0.00579731 0)
(0.835653 0.00240156 0)
(0.218414 0.000191825 0)
(0.268283 0.0004667 0)
(1.05204 0.00764258 0)
(1.08836 0.0136529 0)
(1.08722 0.0202889 0)
(1.0836 0.0276844 0)
(1.07799 0.0356629 0)
(1.06988 0.0436676 0)
(1.05887 0.0508044 0)
(1.04474 0.0558349 0)
(1.0277 0.0571528 0)
(1.01096 0.0536773 0)
(0.997952 0.0471197 0)
(0.988663 0.0394581 0)
(0.982248 0.0317325 0)
(0.977987 0.0244957 0)
(0.975296 0.0180053 0)
(0.973563 0.0123333 0)
(0.964279 0.00741061 0)
(0.823762 0.0030693 0)
(0.213518 0.000246409 0)
(0.279901 0.000755845 0)
(1.07246 0.0112905 0)
(1.10753 0.019399 0)
(1.10522 0.0279949 0)
(1.09973 0.03758 0)
(1.09153 0.047791 0)
(1.08023 0.0576802 0)
(1.06551 0.0660501 0)
(1.04733 0.0714636 0)
(1.02608 0.0721961 0)
(1.00561 0.0673098 0)
(0.989762 0.0590141 0)
(0.978363 0.0495569 0)
(0.970365 0.040057 0)
(0.964952 0.0311313 0)
(0.961481 0.0230836 0)
(0.959277 0.0160031 0)
(0.949528 0.00975324 0)
(0.808628 0.00408194 0)
(0.207209 0.000336541 0)
(0.297986 0.00135145 0)
(1.10128 0.0179144 0)
(1.13443 0.0285614 0)
(1.12961 0.0396188 0)
(1.12066 0.0521233 0)
(1.1083 0.0649957 0)
(1.09234 0.0767261 0)
(1.07268 0.0859364 0)
(1.04949 0.0911453 0)
(1.02333 0.0906621 0)
(0.99869 0.0838759 0)
(0.979683 0.0735479 0)
(0.965842 0.0621194 0)
(0.955878 0.0507036 0)
(0.948885 0.03994 0)
(0.944192 0.0301597 0)
(0.941127 0.0214742 0)
(0.930671 0.0135796 0)
(0.789215 0.00589101 0)
(0.198894 0.000507635 0)
(0.325933 0.00279558 0)
(1.14347 0.0315688 0)
(1.17192 0.0449111 0)
(1.16181 0.059355 0)
(1.14695 0.0752716 0)
(1.12838 0.0903189 0)
(1.10606 0.102866 0)
(1.08017 0.111733 0)
(1.05109 0.115605 0)
(1.01947 0.112951 0)
(0.99032 0.103664 0)
(0.967886 0.091051 0)
(0.951281 0.0776044 0)
(0.938911 0.0643311 0)
(0.92973 0.0518072 0)
(0.923007 0.0403475 0)
(0.91811 0.030038 0)
(0.906319 0.0202883 0)
(0.764171 0.00903081 0)
(0.188578 0.00076125 0)
(0.368612 0.0125431 1.88681e-20)
(1.19912 0.0611063 1.80828e-20)
(1.21802 0.0773671 -6.80323e-21)
(1.19892 0.0947089 0)
(1.17573 0.111765 -1.9922e-34)
(1.14919 0.126505 2.96074e-21)
(1.11937 0.137811 -5.63004e-21)
(1.08652 0.144716 0)
(1.05104 0.14605 1.22025e-34)
(1.0135 0.140451 -7.53744e-21)
(0.979396 0.128311 0)
(0.953051 0.113417 -9.19988e-21)
(0.933088 0.0982007 -2.73042e-20)
(0.917589 0.0835197 -1.29702e-20)
(0.905258 0.069872 -3.9419e-21)
(0.895253 0.0576485 -2.35884e-21)
(0.886826 0.0468417 0)
(0.872479 0.0371113 1.68421e-21)
(0.73043 0.0242587 1.99043e-21)
(0.177889 0.00549321 3.60338e-20)
(0.386574 0.0341547 6.33417e-21)
(1.25011 0.113775 4.93798e-22)
(1.26051 0.129883 1.57375e-21)
(1.23243 0.145147 0)
(1.20062 0.15987 -9.37346e-21)
(1.16622 0.172274 -1.1077e-20)
(1.1292 0.181257 -5.50954e-21)
(1.08965 0.185722 -2.05818e-20)
(1.04778 0.184512 0)
(1.00391 0.176242 3.18845e-20)
(0.963973 0.161887 3.2092e-20)
(0.93265 0.145613 9.62634e-21)
(0.908294 0.129736 3.56744e-20)
(0.888654 0.114953 5.08477e-20)
(0.872285 0.101709 0)
(0.858171 0.0904353 7.3339e-20)
(0.845533 0.0813883 1.06764e-19)
(0.827603 0.073826 1.19304e-19)
(0.696633 0.0583129 -1.38314e-19)
(0.174825 0.0153296 -2.5788e-21)
(0.373174 0.0554623 0)
(1.28319 0.184444 3.65848e-22)
(1.29185 0.196388 0)
(1.25741 0.206512 -9.17898e-21)
(1.2192 0.216506 0)
(1.17842 0.224658 -2.06532e-20)
(1.13517 0.229761 1.10135e-20)
(1.0896 0.230606 -4.03555e-20)
(1.04196 0.225977 -1.25897e-21)
(0.992546 0.214581 1.6221e-20)
(0.947806 0.197879 7.04988e-20)
(0.912711 0.18041 -5.97501e-23)
(0.885292 0.164376 -2.5886e-20)
(0.863151 0.150258 -4.76869e-20)
(0.844818 0.138246 5.72279e-20)
(0.829318 0.128498 -1.01818e-19)
(0.815857 0.121159 -1.36849e-20)
(0.798523 0.11537 0)
(0.678168 0.0960762 9.00664e-22)
(0.176178 0.0256343 0)
(0.362749 0.0744394 -3.53597e-20)
(1.29909 0.256535 8.22833e-21)
(1.30895 0.266955 -2.23706e-21)
(1.2715 0.272275 3.74596e-21)
(1.22952 0.277181 -6.91988e-21)
(1.1845 0.280497 4.33342e-20)
(1.13673 0.281076 2.28024e-20)
(1.08648 0.277706 0)
(1.03418 0.269138 -7.87929e-20)
(0.980245 0.254189 0)
(0.931706 0.234926 -3.6319e-20)
(0.893862 0.216166 -4.58381e-20)
(0.864575 0.199799 -2.78799e-20)
(0.841226 0.185908 -3.44009e-20)
(0.822224 0.174418 0)
(0.806485 0.165299 0)
(0.793097 0.158513 -8.88776e-20)
(0.776117 0.152944 1.76047e-20)
(0.661294 0.12902 -1.04989e-20)
(0.174347 0.0347083 -1.22588e-20)
(0.356402 0.0922459 3.50771e-20)
(1.30457 0.326705 0)
(1.31569 0.336533 -1.1154e-21)
(1.27673 0.337705 9.49855e-21)
(1.23256 0.338241 1.84796e-20)
(1.18476 0.337107 0)
(1.13364 0.333262 2.16528e-20)
(1.07973 0.325556 4.4091e-20)
(1.02368 0.312811 3.9697e-20)
(0.966182 0.294002 7.51843e-20)
(0.914859 0.27184 0)
(0.875246 0.251469 -9.70409e-20)
(0.844917 0.234367 -5.88324e-20)
(0.821019 0.220264 -3.46256e-20)
(0.801809 0.208825 2.17504e-19)
(0.7861 0.199761 2.61374e-20)
(0.77291 0.193014 1.25131e-19)
(0.756342 0.187257 -6.02385e-19)
(0.645964 0.158913 3.60914e-19)
(0.172384 0.0431229 -4.35432e-19)
(0.352178 0.109136 4.27468e-20)
(1.30443 0.39289 -5.28385e-21)
(1.31596 0.403264 1.74655e-21)
(1.276 0.401267 -3.69839e-21)
(1.2303 0.398044 -1.2504e-20)
(1.18039 0.392946 1.63838e-21)
(1.12673 0.384993 -2.38431e-20)
(1.06994 0.373072 4.53597e-20)
(1.01093 0.356092 -8.52176e-20)
(0.950676 0.333181 0)
(0.897391 0.307816 -4.35422e-20)
(0.856721 0.285512 -8.06029e-22)
(0.825899 0.267347 -6.34762e-20)
(0.801857 0.252695 0)
(0.782709 0.24096 -4.63354e-20)
(0.767197 0.231682 -1.1062e-19)
(0.754273 0.224701 3.01877e-19)
(0.738082 0.218563 -3.01551e-19)
(0.631555 0.186128 4.31164e-19)
(0.170305 0.0509186 -4.48606e-19)
(0.348778 0.125072 -7.18175e-22)
(1.3008 0.455651 7.98177e-21)
(1.3118 0.466682 1.45371e-20)
(1.27103 0.462156 -9.81783e-22)
(1.22414 0.455869 -6.62135e-21)
(1.17259 0.44733 0)
(1.11682 0.435635 -2.12822e-20)
(1.05764 0.419657 -4.75549e-20)
(0.996167 0.398399 -4.39732e-20)
(0.933768 0.371178 0)
(0.87919 0.34232 -4.33922e-20)
(0.83804 0.317798 -5.40261e-20)
(0.807186 0.298328 6.72585e-20)
(0.783279 0.28292 -4.17707e-20)
(0.764383 0.270672 -1.95889e-19)
(0.749187 0.261028 1.18543e-19)
(0.736576 0.253682 3.66213e-20)
(0.720818 0.247025 0)
(0.617787 0.210893 -4.05882e-19)
(0.168256 0.0581864 -1.47642e-20)
(0.346236 0.140428 7.74049e-21)
(1.29486 0.515185 -9.83133e-21)
(1.30474 0.526875 -7.34956e-21)
(1.26315 0.520282 5.35205e-21)
(1.21517 0.511417 -2.21875e-20)
(1.16214 0.499913 3.803e-20)
(1.10453 0.484785 4.76746e-20)
(1.04323 0.464954 -7.65604e-20)
(0.979624 0.439394 2.74034e-20)
(0.915516 0.407632 -1.78483e-19)
(0.86022 0.374968 -4.85894e-20)
(0.819139 0.348002 0)
(0.788603 0.327089 7.09685e-20)
(0.765103 0.310772 8.47957e-20)
(0.746601 0.297954 1.02966e-19)
(0.731779 0.28786 -1.25159e-19)
(0.719561 0.280107 -3.72085e-20)
(0.704276 0.272812 4.4888e-20)
(0.604551 0.233431 0)
(0.166426 0.0650428 -3.13693e-20)
(0.34434 0.155294 -9.33873e-20)
(1.28745 0.571729 5.01904e-20)
(1.29576 0.583982 6.30653e-21)
(1.25327 0.575718 2.45689e-21)
(1.20422 0.564706 -8.80768e-21)
(1.14978 0.550576 -2.67068e-21)
(1.09038 0.532337 -5.41029e-20)
(1.02708 0.508811 -2.7993e-20)
(0.961486 0.47888 -7.65252e-20)
(0.896007 0.442307 -1.14853e-22)
(0.840493 0.405512 -1.46682e-19)
(0.799981 0.375915 1.24505e-19)
(0.770141 0.353481 -7.52574e-20)
(0.747281 0.336246 9.10034e-20)
(0.729292 0.322834 0)
(0.714903 0.312299 -6.52597e-20)
(0.703066 0.304148 -1.85682e-21)
(0.688296 0.296265 -1.87682e-19)
(0.591958 0.254109 -2.82518e-20)
(0.164785 0.0715402 0)
(0.343078 0.169631 0)
(1.2791 0.625408 4.81825e-20)
(1.2856 0.63827 2.01302e-20)
(1.24214 0.628606 -1.10232e-21)
(1.19195 0.615765 -1.5567e-20)
(1.13603 0.599361 0)
(1.07485 0.578274 -2.41168e-20)
(1.00949 0.551166 -1.54453e-22)
(0.941969 0.516821 1.63976e-19)
(0.87527 0.475087 -2.40081e-20)
(0.820006 0.433791 -1.04236e-19)
(0.780602 0.401386 6.33306e-20)
(0.75188 0.377445 -5.73257e-22)
(0.729859 0.359372 9.34316e-20)
(0.712489 0.345427 5.93442e-20)
(0.698569 0.334469 -1.3939e-19)
(0.687157 0.325953 1.66677e-19)
(0.672897 0.317527 4.95257e-20)
(0.579932 0.272964 2.08342e-19)
(0.163309 0.0776958 -5.56791e-19)
(0.342508 0.183761 -2.44846e-20)
(1.27041 0.676603 3.04817e-20)
(1.27471 0.690037 -1.79908e-20)
(1.23028 0.679132 -1.09505e-21)
(1.17885 0.664727 0)
(1.12137 0.646305 -1.89099e-20)
(1.05827 0.62261 8.64867e-20)
(0.990757 0.592065 6.35846e-20)
(0.921197 0.553244 0)
(0.853315 0.505956 -3.39098e-19)
(0.798768 0.459633 2.70173e-19)
(0.761106 0.424243 0)
(0.733955 0.39892 8.21299e-20)
(0.712987 0.380185 -5.35457e-22)
(0.696297 0.365817 -1.80719e-19)
(0.682862 0.354545 7.17665e-20)
(0.671803 0.345709 0)
(0.658072 0.336811 2.61176e-19)
(0.56862 0.290394 0)
(0.162092 0.083646 -2.57053e-19)
(0.342576 0.19768 2.70238e-20)
(1.26177 0.725273 3.75704e-20)
(1.26354 0.739451 -1.67474e-20)
(1.21807 0.727493 0)
(1.16533 0.711728 -1.52233e-20)
(1.10618 0.69153 0)
(1.04102 0.66543 -8.71116e-20)
(0.971127 0.631634 -3.01149e-20)
(0.899289 0.588269 2.96227e-20)
(0.830156 0.534951 -1.66408e-19)
(0.776673 0.482911 2.75795e-20)
(0.741569 0.44429 0)
(0.716624 0.417831 -1.66027e-19)
(0.696937 0.398801 6.95314e-22)
(0.680883 0.38428 0)
(0.667804 0.372807 2.4475e-21)
(0.657065 0.363657 2.29203e-19)
(0.643837 0.354324 -2.22678e-19)
(0.558041 0.306457 6.62582e-20)
(0.160958 0.0893193 0)
(0.342976 0.211472 0)
(1.25296 0.771836 4.22623e-20)
(1.25231 0.786629 2.28054e-20)
(1.20574 0.773819 -2.44761e-21)
(1.15166 0.756911 -3.52049e-21)
(1.09074 0.735156 -5.30241e-20)
(1.02341 0.706881 3.47889e-20)
(0.950886 0.669965 -3.63418e-20)
(0.876373 0.622036 1.32262e-19)
(0.805678 0.56216 -2.60865e-19)
(0.753613 0.503491 3.51102e-21)
(0.722148 0.461264 -7.00696e-20)
(0.70026 0.434063 2.57655e-19)
(0.682046 0.415373 -7.60609e-22)
(0.666457 0.401109 -1.30899e-19)
(0.653447 0.389547 -2.4323e-19)
(0.642848 0.380095 0)
(0.630049 0.370346 0)
(0.548078 0.321467 7.21352e-20)
(0.159675 0.0946434 -4.12408e-20)
(0.343949 0.225363 3.39487e-20)
(1.24434 0.816517 -8.75803e-20)
(1.2413 0.831706 -2.2033e-20)
(1.19351 0.818206 0)
(1.13802 0.800365 -3.80259e-22)
(1.0753 0.777259 -5.23752e-20)
(1.0057 0.747087 8.76947e-20)
(0.930296 0.707233 1.48574e-19)
(0.852595 0.654734 1.75746e-19)
(0.779772 0.587739 -2.12999e-19)
(0.729416 0.521221 -2.05836e-19)
(0.702937 0.474816 1.78304e-19)
(0.685348 0.447515 0)
(0.668866 0.430243 -5.48727e-20)
(0.653257 0.416881 -1.39927e-19)
(0.639726 0.40533 -1.70391e-19)
(0.628891 0.395462 -2.09817e-19)
(0.616369 0.385153 6.3091e-20)
(0.538336 0.335432 -3.77418e-20)
(0.157749 0.099391 1.73193e-22)
(0.345132 0.239113 0)
(1.23609 0.859365 0)
(1.23064 0.874816 7.26731e-22)
(1.18159 0.86074 0)
(1.12461 0.842123 1.38756e-20)
(1.06003 0.817911 3.96926e-20)
(0.98808 0.786095 0)
(0.909599 0.743633 1.88402e-20)
(0.828179 0.68661 3.02886e-19)
(0.752394 0.611879 -4.84965e-19)
(0.703695 0.535953 0)
(0.683925 0.484336 -1.0133e-19)
(0.672677 0.457784 -2.24028e-21)
(0.658183 0.443677 -3.0623e-21)
(0.641589 0.432332 1.4032e-19)
(0.626399 0.421253 -1.48874e-21)
(0.614538 0.410839 -4.48405e-19)
(0.602093 0.399282 1.37703e-19)
(0.527965 0.348348 4.12139e-20)
(0.154407 0.10309 0)
(0.34647 0.252621 -1.27177e-19)
(1.22821 0.900415 -5.42936e-20)
(1.22042 0.916068 -5.74709e-20)
(1.17013 0.901509 3.48754e-20)
(1.11164 0.882241 2.42827e-20)
(1.04513 0.857115 0)
(0.970707 0.823944 6.2574e-20)
(0.888969 0.779276 -4.33519e-20)
(0.80336 0.71802 1.18819e-21)
(0.723515 0.634992 3.39322e-20)
(0.675983 0.547604 2.41405e-19)
(0.665079 0.488936 -3.39527e-20)
(0.663261 0.464461 -1.29401e-19)
(0.651216 0.456151 -5.50109e-20)
(0.632458 0.448953 7.76496e-20)
(0.614124 0.438214 -1.62641e-21)
(0.599696 0.426713 1.23261e-19)
(0.585258 0.412889 -2.97223e-19)
(0.514613 0.360032 3.61989e-19)
(0.148785 0.104888 5.21731e-20)
(0.347585 0.26577 4.70789e-20)
(1.22073 0.939782 -2.82508e-20)
(1.21064 0.955514 4.82452e-21)
(1.15914 0.940543 2.13474e-20)
(1.09921 0.920765 -1.90854e-21)
(1.03082 0.894919 -8.19704e-20)
(0.953829 0.860686 1.94944e-20)
(0.868594 0.814181 -1.88873e-19)
(0.778291 0.749202 -3.5639e-19)
(0.693203 0.657547 -2.91287e-19)
(0.645698 0.556197 0)
(0.646098 0.487464 -1.20598e-19)
(0.657735 0.465772 1.5918e-19)
(0.650865 0.468396 0)
(0.627404 0.469102 -1.58508e-19)
(0.601835 0.458808 1.05902e-19)
(0.581798 0.444876 -1.32176e-19)
(0.565484 0.426719 -1.67985e-19)
(0.498685 0.369191 -3.00287e-19)
(0.1391 0.103678 -2.35818e-19)
(0.349207 0.278871 -5.15801e-20)
(1.21357 0.977484 3.00999e-20)
(1.20136 0.993204 5.7854e-20)
(1.14868 0.97786 3.23212e-20)
(1.08736 0.957669 1.07334e-20)
(1.01719 0.931324 -5.36742e-20)
(0.937702 0.89633 6.80257e-20)
(0.848737 0.848442 -2.05322e-19)
(0.753125 0.780268 -2.20214e-19)
(0.661469 0.680159 3.11954e-19)
(0.612212 0.561943 4.74244e-19)
(0.626329 0.478913 0)
(0.658519 0.460972 0)
(0.660383 0.48153 -6.02045e-20)
(0.628594 0.495585 0)
(0.590014 0.488764 2.34169e-19)
(0.559216 0.466322 2.97149e-19)
(0.540956 0.443038 0)
(0.474568 0.377089 0)
(0.121722 0.0970333 2.69169e-19)
(0.350562 0.291354 5.79414e-20)
(1.20675 1.01348 4.17303e-20)
(1.19254 1.02915 4.06546e-20)
(1.13879 1.01348 -2.94412e-20)
(1.07616 0.99297 1.02296e-20)
(1.00428 0.96628 6.41658e-20)
(0.922447 0.930863 -1.01061e-19)
(0.829783 0.882085 -5.32831e-21)
(0.728213 0.811411 -1.34335e-21)
(0.628317 0.703343 2.04013e-21)
(0.574835 0.565525 2.31623e-19)
(0.603685 0.460993 0)
(0.667238 0.445002 9.64171e-20)
(0.685812 0.494211 9.80942e-20)
(0.640878 0.531713 3.37483e-19)
(0.570954 0.537633 1.22159e-19)
(0.520904 0.505741 -1.77772e-19)
(0.498201 0.464398 -1.09462e-19)
(0.432798 0.37856 0)
(0.0941246 0.0813185 3.13475e-19)
(0.352414 0.304114 -1.28687e-19)
(1.20023 1.04785 0)
(1.18417 1.06337 4.69038e-20)
(1.12943 1.04739 -2.32831e-20)
(1.06566 1.02665 -8.68748e-21)
(0.992195 0.999783 -8.28719e-20)
(0.908142 0.964208 2.18116e-19)
(0.811894 0.915096 -1.21332e-20)
(0.704081 0.842805 0)
(0.594015 0.727577 -3.6662e-19)
(0.53268 0.568107 -4.738e-19)
(0.575922 0.431841 9.32738e-21)
(0.685185 0.412516 1.81436e-20)
(0.734268 0.509726 0)
(0.671828 0.586858 2.11055e-19)
(0.560359 0.593768 0)
(0.476429 0.546875 0)
(0.436985 0.476318 -1.34118e-19)
(0.370395 0.360739 0)
(0.0827844 0.05877 8.87406e-20)
(0.35386 0.316165 -1.42141e-19)
(1.19389 1.08074 0)
(1.17618 1.09597 7.94746e-20)
(1.12062 1.07973 0)
(1.05583 1.05887 3.54935e-21)
(0.980892 1.03203 0)
(0.894846 0.996654 1.24452e-20)
(0.795051 0.947763 3.32244e-20)
(0.680901 0.874992 3.03772e-20)
(0.558726 0.754134 -4.20219e-19)
(0.48417 0.57117 1.65436e-20)
(0.53893 0.38882 2.02044e-20)
(0.715512 0.353071 -4.08164e-20)
(0.819589 0.516089 7.54019e-22)
(0.699242 0.692318 1.53062e-19)
(0.508202 0.738515 0)
(0.374301 0.662015 4.33374e-19)
(0.31012 0.508665 -2.74468e-19)
(0.183796 0.298711 3.24194e-19)
(-0.0406353 0.514797 -4.00544e-19)
(0.355481 0.328135 1.17734e-19)
(1.18754 1.11235 1.58571e-19)
(1.16842 1.12718 0)
(1.11225 1.11088 1.78958e-21)
(1.04649 1.09022 -4.41285e-21)
(0.970122 1.06373 1.45632e-19)
(0.882221 1.02909 8.80848e-20)
(0.778868 0.981252 0)
(0.657894 0.909465 2.20625e-19)
(0.52115 0.785357 -2.49642e-20)
(0.4238 0.577183 0)
(0.482522 0.325328 0)
(0.760387 0.236813 -1.70253e-19)
(0.999063 0.481679 2.4001e-20)
(0.817082 0.800229 -1.28416e-19)
(0.505168 0.891872 0)
(0.278881 0.77322 2.35406e-19)
(0.0918217 0.799353 -2.86361e-19)
(0.114524 2.04174 -1.59206e-19)
(0.127799 2.8737 -1.89261e-19)
(0.357023 0.338928 -8.8125e-20)
(1.18092 1.14261 -2.00729e-19)
(1.16086 1.15677 4.46467e-20)
(1.10438 1.14064 2.52402e-20)
(1.0377 1.12037 0)
(0.959999 1.09449 1.0055e-19)
(0.870563 1.06108 1.35228e-19)
(0.763836 1.01507 -1.83891e-20)
(0.635913 0.945928 3.40611e-20)
(0.482738 0.822027 4.38697e-19)
(0.351977 0.590263 2.19938e-19)
(0.39218 0.237278 -1.36834e-19)
(0.792887 0.00279481 -3.95105e-19)
(1.23998 0.444133 3.75415e-19)
(1.01551 0.972116 -1.17546e-19)
(0.580128 1.12938 0)
(0.23644 1.17515 0)
(0.245318 2.52722 1.19595e-19)
(0.235999 3.11286 0)
(0.215116 3.26558 2.7075e-19)
(0.361907 0.348753 0)
(1.17365 1.17125 0)
(1.15338 1.18437 0)
(1.09675 1.16874 8.8285e-21)
(1.02921 1.14906 -8.26776e-21)
(0.950328 1.1241 7.33096e-20)
(0.85988 1.09249 9.43337e-20)
(0.750034 1.04911 -1.91489e-20)
(0.615493 0.984484 3.12846e-19)
(0.444035 0.865161 1.11442e-20)
(0.268461 0.618485 4.69006e-19)
(0.244416 0.157383 4.49386e-20)
(0.676271 -0.0416226 -8.90676e-20)
(1.29651 0.682522 -8.89183e-20)
(1.19615 1.35225 3.76809e-20)
(0.614298 1.60391 -1.15818e-21)
(0.371542 2.45716 -4.71837e-19)
(0.394445 3.19392 -1.88827e-19)
(0.311021 3.31585 8.46766e-20)
(0.257784 3.3518 -7.5254e-20)
(0.236995 0.277879 5.1982e-20)
(1.16453 1.19753 0)
(1.14693 1.21041 -9.26435e-20)
(1.0899 1.19572 -6.91015e-20)
(1.0217 1.17693 9.77869e-22)
(0.941971 1.15307 -7.5248e-20)
(0.851035 1.12235 -1.08034e-19)
(0.739311 1.08216 2.47375e-19)
(0.600102 1.02371 -2.75464e-19)
(0.413148 0.91943 0)
(0.185837 0.692019 2.74589e-19)
(0.0714016 0.232003 1.74498e-19)
(0.432775 0.197292 0)
(1.09038 1.22375 -2.1731e-19)
(1.19676 1.97414 -1.04247e-19)
(0.631198 2.28438 -5.00875e-21)
(0.558178 3.30298 2.44523e-20)
(0.445315 3.4131 3.78787e-21)
(0.344384 3.43503 3.77025e-20)
(0.282144 3.4411 9.29823e-21)
(0.440054 0.429142 -7.55893e-20)
(1.14624 1.21486 0)
(1.13806 1.24887 9.87672e-20)
(1.07802 1.23614 7.86624e-20)
(1.00825 1.21884 -9.52864e-21)
(0.926617 1.19679 6.8364e-20)
(0.8315 1.169 1.40835e-19)
(0.715206 1.13337 2.02816e-20)
(0.566231 1.08354 3.05552e-19)
(0.352347 0.996326 5.11059e-19)
(0.0308381 0.797342 2.46305e-20)
(-0.4219 0.513768 -1.77556e-19)
(-0.379142 1.19604 -1.62348e-19)
(0.56649 2.54566 2.69676e-19)
(0.664194 3.04151 2.69487e-19)
(0.553374 3.54086 -1.89023e-19)
(0.49181 3.62962 1.96228e-19)
(0.411548 3.57767 7.93592e-20)
(0.34017 3.5751 1.23861e-19)
(0.269925 3.53791 9.60368e-21)
(0.433447 0.430559 0)
(1.14742 1.24273 3.52015e-20)
(1.13212 1.27641 -2.18929e-20)
(1.07146 1.26453 -1.08956e-20)
(1.0008 1.24804 -1.02441e-20)
(0.918443 1.22711 -6.35498e-20)
(0.822028 1.20105 -8.99356e-20)
(0.704135 1.1691 1.97927e-20)
(0.551349 1.12709 -3.42128e-19)
(0.324867 1.06093 1.14617e-20)
(-0.0460096 0.93685 -8.00554e-19)
(-0.605592 0.911284 -5.7031e-20)
(-0.747969 1.82595 1.33627e-19)
(0.129814 3.10127 2.00316e-19)
(0.387171 3.63225 1.51782e-20)
(0.447571 3.75954 1.95846e-20)
(0.434504 3.71307 -5.69592e-19)
(0.387939 3.66794 -3.33152e-19)
(0.32062 3.669 2.19968e-19)
(0.256617 3.62937 1.41128e-19)
(0.412135 0.425836 9.97258e-20)
(1.14721 1.2751 2.40162e-19)
(1.12654 1.30698 -6.03924e-20)
(1.06477 1.29524 -3.86527e-20)
(0.993293 1.27927 0)
(0.910333 1.25926 -7.1204e-20)
(0.813143 1.23506 -1.23998e-19)
(0.694417 1.20687 1.91352e-20)
(0.539953 1.17401 -3.90482e-20)
(0.308424 1.1339 -5.83256e-19)
(-0.0781889 1.09821 -4.67091e-19)
(-0.659745 1.26903 8.20756e-20)
(-0.851046 2.26422 7.75828e-19)
(-0.131695 3.39336 -1.09791e-18)
(0.234119 3.7456 -9.24647e-19)
(0.379628 3.75941 0)
(0.401545 3.73351 0)
(0.381295 3.73769 2.21612e-19)
(0.313087 3.76164 0)
(0.237366 3.72723 3.61962e-19)
(0.394931 0.425266 -1.55818e-19)
(1.14448 1.31024 -2.0994e-19)
(1.11996 1.33991 0)
(1.05719 1.32769 3.91061e-21)
(0.984995 1.31183 -2.49639e-20)
(0.901664 1.2926 -9.00992e-20)
(0.804196 1.27007 -7.78075e-20)
(0.685602 1.24578 1.52375e-20)
(0.531651 1.22254 -2.90327e-19)
(0.302412 1.20924 3.28987e-20)
(-0.0700225 1.25055 0)
(-0.591941 1.55147 0)
(-0.752629 2.49755 3.53124e-19)
(-0.151773 3.3909 -2.52174e-19)
(0.206285 3.6492 -5.11881e-19)
(0.375359 3.66171 0)
(0.425481 3.72318 4.3118e-19)