/*--------------------------------*- C++ -*----------------------------------*\
  =========                 |
  \\      /  F ield         | OpenFOAM: The Open Source CFD Toolbox
   \\    /   O peration     | Website:  https://openfoam.org
    \\  /    A nd           | Version:  9
     \\/     M anipulation  |
\*---------------------------------------------------------------------------*/
FoamFile
{
    format      ascii;
    class       volScalarField;
    location    "28";
    object      p;
}
// * * * * * * * * * * * * * * * * * * * * * * * * * * * * * * * * * * * * * //

dimensions      [0 2 -2 0 0 0 0];

internalField   nonuniform List<scalar> 
8800
(
1.01588
0.968094
0.9294
0.900398
0.879523
0.864673
0.854048
0.846528
0.841652
0.83951
0.840667
0.844753
0.851311
0.860559
0.87329
0.890991
0.915744
0.949668
0.992203
1.0509
0.847144
0.854822
0.862286
0.865591
0.86408
0.858989
0.852484
0.846378
0.841605
0.838685
0.838299
0.840686
0.845074
0.850939
0.857646
0.863881
0.86749
0.866735
0.861292
0.85259
0.825567
0.831727
0.835851
0.838789
0.840828
0.841416
0.840283
0.838137
0.836057
0.835048
0.835886
0.838148
0.840847
0.842947
0.843491
0.842244
0.839863
0.836442
0.83187
0.828104
0.819797
0.822447
0.825197
0.827596
0.829222
0.830367
0.83108
0.831152
0.830783
0.83062
0.831233
0.832271
0.832992
0.832959
0.832272
0.831118
0.829253
0.826643
0.824218
0.822713
0.814469
0.815894
0.817678
0.819713
0.821494
0.822823
0.823783
0.824528
0.825061
0.8255
0.825987
0.82632
0.82628
0.825873
0.825074
0.82374
0.821973
0.820068
0.818731
0.817901
0.809471
0.810392
0.811643
0.81322
0.814858
0.816378
0.817641
0.818656
0.819526
0.820272
0.820766
0.820897
0.82068
0.820084
0.819067
0.817749
0.816324
0.814989
0.814132
0.813584
0.804665
0.805333
0.806313
0.80764
0.809068
0.810535
0.811966
0.813248
0.814351
0.815287
0.815873
0.815992
0.815672
0.81495
0.813959
0.812851
0.811703
0.810677
0.81005
0.809653
0.800029
0.800542
0.801352
0.802527
0.803842
0.805237
0.806684
0.808122
0.809446
0.810577
0.811301
0.811465
0.811136
0.810474
0.809629
0.80869
0.807731
0.806914
0.806433
0.806128
0.795507
0.795908
0.796598
0.797663
0.798919
0.800271
0.801711
0.803216
0.804719
0.806086
0.806982
0.807248
0.807044
0.806544
0.805863
0.805076
0.804271
0.803612
0.803237
0.802999
0.791039
0.791357
0.791964
0.792973
0.794201
0.795548
0.797014
0.798584
0.800219
0.801808
0.802949
0.803448
0.803459
0.803142
0.80262
0.80198
0.801293
0.800753
0.800461
0.800272
0.786589
0.78684
0.787386
0.788366
0.789592
0.790975
0.792519
0.794208
0.796014
0.797855
0.799316
0.800117
0.800374
0.800245
0.799875
0.799371
0.798798
0.798362
0.798138
0.79799
0.782129
0.782323
0.78283
0.783807
0.785068
0.786515
0.78816
0.790033
0.792114
0.7943
0.79615
0.797278
0.797791
0.797883
0.797695
0.797319
0.796862
0.79651
0.796343
0.796226
0.777598
0.777739
0.77821
0.779187
0.780478
0.781984
0.783721
0.785742
0.788086
0.7907
0.793028
0.794606
0.795517
0.795944
0.796011
0.795825
0.795506
0.795251
0.795142
0.795054
0.773012
0.773104
0.773548
0.774535
0.775894
0.777514
0.77944
0.781747
0.784471
0.787596
0.790534
0.792663
0.793992
0.794725
0.795044
0.795081
0.794908
0.794762
0.794713
0.794652
0.768357
0.768405
0.768807
0.769755
0.771128
0.772828
0.774922
0.777526
0.780736
0.784545
0.788225
0.790995
0.792891
0.794094
0.794783
0.795117
0.795214
0.795231
0.795237
0.795189
0.763248
0.763299
0.763673
0.764583
0.765977
0.767796
0.770144
0.773151
0.776943
0.781564
0.786174
0.789775
0.792314
0.794065
0.795241
0.795958
0.796364
0.796564
0.796622
0.796574
0.757344
0.757384
0.757765
0.758705
0.760219
0.762278
0.765007
0.768595
0.773207
0.778892
0.784618
0.789172
0.792483
0.794829
0.796497
0.797616
0.79832
0.798682
0.798778
0.798722
0.750307
0.750344
0.750779
0.751804
0.753537
0.75594
0.759175
0.763484
0.769087
0.776081
0.783218
0.788959
0.793197
0.796266
0.798479
0.800027
0.801045
0.801564
0.801695
0.80163
0.741799
0.741842
0.742363
0.743596
0.745668
0.748583
0.752544
0.757865
0.764801
0.773457
0.782287
0.789413
0.794697
0.798566
0.801381
0.803381
0.804703
0.805355
0.805515
0.805437
0.731398
0.731446
0.732102
0.733641
0.736208
0.739831
0.74478
0.751423
0.760066
0.770803
0.78171
0.790486
0.797014
0.8018
0.805309
0.807817
0.809453
0.810231
0.810427
0.810338
0.718594
0.718651
0.719488
0.72146
0.724735
0.729354
0.735657
0.744071
0.754916
0.768238
0.781636
0.792357
0.800298
0.806155
0.810487
0.81358
0.815559
0.816484
0.816717
0.816613
0.702663
0.702721
0.703803
0.706403
0.710711
0.716734
0.724896
0.735651
0.749298
0.765796
0.782167
0.795173
0.80481
0.811914
0.817171
0.820888
0.823243
0.824344
0.824625
0.824503
0.682648
0.682721
0.684164
0.687655
0.693444
0.70147
0.712186
0.72605
0.743251
0.763592
0.783444
0.799088
0.810671
0.819215
0.825522
0.82998
0.832764
0.834079
0.834406
0.834256
0.656893
0.65701
0.659073
0.66399
0.672
0.682961
0.697269
0.715243
0.73689
0.761811
0.785658
0.804271
0.818038
0.828226
0.835729
0.841029
0.844339
0.845889
0.846251
0.846067
0.622493
0.622756
0.626098
0.633613
0.645276
0.660662
0.680008
0.703359
0.730462
0.76071
0.789019
0.810879
0.827023
0.839008
0.847866
0.854155
0.858088
0.859889
0.860267
0.860037
0.573744
0.57492
0.581632
0.594472
0.612415
0.634499
0.66073
0.690854
0.724401
0.760617
0.793734
0.819014
0.837643
0.851523
0.861869
0.869312
0.873972
0.87603
0.876392
0.876102
0.501489
0.509237
0.524754
0.547467
0.574804
0.605792
0.640421
0.678353
0.719094
0.761896
0.800314
0.829423
0.850906
0.867045
0.879275
0.88827
0.89402
0.89664
0.897159
0.896952
0.423971
0.441782
0.466857
0.499881
0.536872
0.576954
0.620088
0.666076
0.714496
0.764727
0.809587
0.843661
0.868984
0.88821
0.903066
0.914364
0.921612
0.924963
0.925914
0.925899
0.360284
0.38102
0.413914
0.455423
0.500967
0.549521
0.600826
0.654639
0.710538
0.767886
0.81877
0.857338
0.886056
0.90797
0.924909
0.937693
0.946301
0.950497
0.951215
0.9513
0.308371
0.330928
0.36898
0.41652
0.468769
0.524386
0.582861
0.643785
0.706606
0.770603
0.826998
0.869509
0.901038
0.924996
0.943511
0.957492
0.967222
0.971616
0.972485
0.972663
0.265288
0.288893
0.330481
0.382812
0.440421
0.501825
0.566392
0.633568
0.702623
0.772648
0.833996
0.879921
0.913751
0.93934
0.95903
0.973887
0.984125
0.98898
0.990182
0.990393
0.228445
0.252663
0.296974
0.353031
0.415105
0.481416
0.551247
0.623921
0.69856
0.774042
0.839829
0.888728
0.924472
0.951305
0.971804
0.987246
0.997717
1.00297
1.00438
1.0046
0.195919
0.220544
0.26694
0.326116
0.391964
0.462528
0.537
0.614594
0.6943
0.774792
0.844658
0.896226
0.933598
0.961381
0.982397
0.998127
1.0087
1.01412
1.01565
1.01582
0.166288
0.191278
0.239401
0.301255
0.370339
0.44462
0.52323
0.605287
0.689668
0.774862
0.848605
0.902688
0.941544
0.970134
0.991526
1.00738
1.018
1.02348
1.0251
1.02525
0.13869
0.16401
0.213654
0.27778
0.349729
0.427308
0.509624
0.595757
0.684502
0.774184
0.85171
0.908309
0.948639
0.978035
0.99982
1.01581
1.02645
1.03192
1.03362
1.03376
0.11241
0.138118
0.189148
0.255273
0.329766
0.410286
0.495953
0.585828
0.678663
0.772674
0.853991
0.913176
0.955105
0.985417
1.00767
1.02384
1.03452
1.03989
1.04159
1.04176
0.0871641
0.11329
0.165413
0.233451
0.310219
0.393376
0.482071
0.575382
0.672056
0.770276
0.855437
0.917402
0.961124
0.992508
1.01535
1.0318
1.04255
1.04785
1.04943
1.04955
0.0625987
0.0892749
0.142392
0.212129
0.290925
0.376448
0.46789
0.56435
0.664622
0.766933
0.856053
0.921033
0.966769
0.999421
1.02301
1.03983
1.05069
1.05593
1.05735
1.05738
0.0386442
0.0657148
0.119938
0.191192
0.271802
0.35945
0.453367
0.552705
0.656335
0.762617
0.855773
0.92399
0.97204
1.0062
1.03068
1.04798
1.05894
1.06408
1.06536
1.06528
0.0152155
0.0428159
0.0979489
0.17059
0.252834
0.342378
0.438507
0.540448
0.647185
0.757258
0.85447
0.926204
0.976898
1.01283
1.03839
1.05622
1.06725
1.07221
1.07333
1.07315
-0.00777655
0.0203999
0.0764306
0.150325
0.234019
0.325253
0.423349
0.527618
0.637175
0.750806
0.852069
0.927557
0.981264
1.01932
1.04615
1.06454
1.07559
1.08026
1.08116
1.08092
-0.0303271
-0.00152272
0.0553918
0.130423
0.215411
0.308124
0.407952
0.514267
0.626343
0.743262
0.848489
0.927892
0.984989
1.0256
1.05399
1.07296
1.08384
1.0881
1.08875
1.08845
-0.0522602
-0.0228748
0.0348727
0.110925
0.19706
0.291068
0.392386
0.500482
0.61477
0.734661
0.843643
0.927049
0.98788
1.0316
1.062
1.08161
1.09202
1.09559
1.09593
1.09558
-0.0735473
-0.0436062
0.014912
0.0918898
0.17903
0.274154
0.376754
0.486359
0.602548
0.725038
0.837487
0.924859
0.98969
1.03711
1.07029
1.09089
1.10041
1.10267
1.10253
1.10218
-0.0942436
-0.0636778
-0.00445049
0.0733609
0.161389
0.257469
0.361149
0.472006
0.589778
0.714476
0.830003
0.921181
0.990116
1.04176
1.07877
1.10141
1.10999
1.10986
1.10849
1.10829
-0.11418
-0.0830668
-0.0231568
0.0554067
0.1442
0.241097
0.345668
0.457539
0.576585
0.703094
0.821217
0.915899
0.988849
1.04494
1.08689
1.11354
1.12275
1.11979
1.1153
1.11413
-0.13344
-0.101763
-0.0412261
0.0380014
0.127431
0.224991
0.330252
0.442895
0.562903
0.69082
0.811005
0.90876
0.985567
1.04586
1.09339
1.12644
1.14019
1.13845
1.12782
1.11002
-0.151955
-0.119764
-0.0587811
0.020955
0.11079
0.208817
0.314483
0.427585
0.548176
0.676987
0.798675
0.898891
0.979572
1.04329
1.09548
1.13585
1.15509
1.14713
1.132
1.1125
-0.169557
-0.137209
-0.0756398
0.00451237
0.0945725
0.192922
0.298589
0.411944
0.532734
0.661901
0.784405
0.886003
0.970384
1.0364
1.08796
1.12898
1.15032
1.13405
1.06276
1.02828
-0.185604
-0.155236
-0.0914635
-0.0107389
0.0794895
0.177789
0.282864
0.396195
0.516796
0.645708
0.768202
0.869958
0.95701
1.02549
1.06718
1.09869
1.10392
1.05491
0.982137
0.936537
-0.241246
-0.170936
-0.105954
-0.0260251
0.0641126
0.162032
0.267246
0.380074
0.500023
0.628006
0.749566
0.850418
0.936384
1.01203
1.01477
1.03083
0.99796
0.93359
0.855354
0.811161
-0.202423
-0.186582
-0.126998
-0.047733
0.0418128
0.139397
0.243561
0.35546
0.473999
0.599872
0.7184
0.81624
0.893633
0.968354
0.967072
0.860758
0.755339
0.682751
0.607881
0.644288
-0.233183
-0.204149
-0.143839
-0.0649494
0.0244627
0.121691
0.225977
0.33709
0.454339
0.578058
0.693275
0.786797
0.856644
0.896266
0.851052
0.704368
0.572569
0.479139
0.37665
0.433088
-0.256858
-0.224808
-0.163395
-0.084177
0.00523795
0.102302
0.206383
0.316517
0.432168
0.553211
0.664411
0.752217
0.812305
0.821256
0.715801
0.534668
0.373279
0.248192
0.110557
0.150038
-0.279909
-0.246331
-0.183795
-0.103765
-0.0141979
0.0827121
0.186206
0.29525
0.409133
0.527187
0.633634
0.715087
0.76057
0.735699
0.574864
0.366224
0.16122
-0.024123
-0.227276
-0.232126
-0.302173
-0.268304
-0.204926
-0.124191
-0.0344384
0.0622647
0.165068
0.272923
0.384815
0.499566
0.60073
0.675087
0.703331
0.643654
0.440326
0.214563
-0.0220858
-0.234988
-0.502008
-0.834627
-0.324655
-0.290882
-0.227041
-0.145839
-0.0558908
0.0406562
0.142847
0.249502
0.359328
0.470596
0.566308
0.632683
0.643628
0.532796
0.323324
0.0972045
-0.128347
-0.320878
-0.394669
-0.500386
-0.348175
-0.314488
-0.250444
-0.169031
-0.079012
0.017295
0.118788
0.224086
0.331554
0.438881
0.52873
0.585673
0.571866
0.421173
0.220055
0.0133185
-0.165732
-0.269967
-0.29398
-0.313619
-0.373063
-0.339435
-0.275283
-0.193826
-0.103902
-0.00798686
0.0925897
0.196248
0.300964
0.40375
0.487259
0.532427
0.496336
0.318327
0.126614
-0.0543298
-0.193563
-0.239684
-0.25473
-0.257013
-0.399521
-0.365824
-0.301604
-0.22018
-0.130476
-0.0351531
0.0642829
0.165996
0.267544
0.365218
0.441733
0.473599
0.419157
0.221467
0.0399764
-0.122118
-0.218504
-0.231766
-0.234158
-0.23428
-0.427536
-0.393735
-0.329401
-0.248051
-0.158702
-0.0641396
0.0339259
0.133383
0.231362
0.323412
0.392048
0.412261
0.32528
0.131356
-0.0409526
-0.175344
-0.216498
-0.223054
-0.22385
-0.223172
-0.456794
-0.422825
-0.358503
-0.277313
-0.18844
-0.0948248
0.00162806
0.0985292
0.192529
0.278527
0.338761
0.344202
0.22584
0.0446625
-0.109609
-0.203627
-0.211233
-0.21492
-0.216851
-0.21675
-0.486731
-0.452702
-0.388701
-0.3077
-0.219446
-0.126973
-0.0323651
0.0616798
0.15135
0.230863
0.283022
0.269827
0.135632
-0.0365973
-0.173942
-0.197217
-0.215137
-0.215613
-0.214023
-0.213519
-0.516896
-0.483059
-0.419317
-0.338793
-0.251316
-0.160176
-0.0676607
0.0232498
0.108315
0.180989
0.225245
0.195358
0.0487245
-0.112562
-0.237764
-0.259428
-0.236337
-0.220276
-0.213418
-0.211131
-0.546436
-0.513013
-0.449694
-0.369916
-0.283447
-0.193864
-0.103667
-0.0161278
0.0641118
0.129971
0.165243
0.121488
-0.0373769
-0.174361
-0.294547
-0.276011
-0.247893
-0.225267
-0.213552
-0.209908
-0.573963
-0.541301
-0.479057
-0.400222
-0.31501
-0.22723
-0.139561
-0.0555492
0.0196948
0.0787972
0.105956
0.053879
-0.118618
-0.226363
-0.265261
-0.272107
-0.28025
-0.279968
-0.271027
-0.265301
-0.598161
-0.566591
-0.506181
-0.428595
-0.344988
-0.259232
-0.174284
-0.0938453
-0.0235315
0.0285902
0.0520902
-0.0152381
-0.182268
-0.308194
-0.255852
-0.348723
-0.395077
-0.421799
-0.418626
-0.41075
-0.617235
-0.587501
-0.529263
-0.453716
-0.3721
-0.28864
-0.206472
-0.129572
-0.0638527
-0.0186285
0.00219961
-0.0858437
-0.257288
-0.446651
-0.735344
-0.588417
-0.570455
-0.583282
-0.582188
-0.582142
-0.629449
-0.602269
-0.546987
-0.473981
-0.394822
-0.313942
-0.234582
-0.161051
-0.0993917
-0.0597495
-0.0476838
-0.16424
-0.326728
-0.352013
-0.246003
-0.477002
-0.733009
-0.749353
-0.732297
-0.728463
-0.632724
-0.609198
-0.557725
-0.487899
-0.4116
-0.333549
-0.256923
-0.186143
-0.127851
-0.0932759
-0.099015
-0.237722
-0.418404
-0.288295
-0.142092
-0.464424
-0.731987
-0.741192
-0.75014
-0.764383
-0.625875
-0.60647
-0.559855
-0.494193
-0.421145
-0.345961
-0.271703
-0.202516
-0.146043
-0.115143
-0.134404
-0.325463
-0.770224
-1.4437
-2.01525
-2.41248
-2.25193
-1.76856
-1.35936
-1.27605
-0.607273
-0.591857
-0.55221
-0.491989
-0.422643
-0.350135
-0.277421
-0.20842
-0.149939
-0.116552
-0.136406
-0.371182
-1.04777
-2.04731
-2.7566
-3.09424
-2.9736
-2.62053
-2.22333
-1.9919
-0.57816
-0.567401
-0.53506
-0.481483
-0.416081
-0.34591
-0.273516
-0.202396
-0.138012
-0.0889104
-0.0888123
-0.217364
-0.568525
-0.925381
-1.23539
-1.26716
-1.06995
-0.79677
-0.551716
-0.41262
-0.542157
-0.535652
-0.51133
-0.464605
-0.403007
-0.334346
-0.261129
-0.185041
-0.109554
-0.0378639
0.0199234
0.107624
0.233879
0.540967
0.941286
1.35252
1.68248
1.90185
2.02226
2.06738
-0.504207
-0.500599
-0.484934
-0.444807
-0.386346
-0.318311
-0.242911
-0.161298
-0.0719391
0.0246503
0.144712
0.274697
0.624921
1.21634
1.863
2.44217
2.86699
3.1102
3.21301
3.24262
-0.469379
-0.467282
-0.458211
-0.425834
-0.370578
-0.301633
-0.22378
-0.136969
-0.0404934
0.0713927
0.194126
0.331848
0.554521
1.07535
1.65869
2.16289
2.5283
2.73876
2.83352
2.86115
-0.434594
-0.433487
-0.430434
-0.408288
-0.357044
-0.286805
-0.207282
-0.119573
-0.0242789
0.0863522
0.202616
0.326575
0.47261
0.80981
1.2587
1.62499
1.89987
2.06722
2.14861
2.17395
-0.411567
-0.410915
-0.410698
-0.39399
-0.343112
-0.271298
-0.190997
-0.105936
-0.0146181
0.0876469
0.191601
0.29391
0.393038
0.588319
0.890516
1.15747
1.35866
1.47918
1.53358
1.54809
-0.391847
-0.394305
-0.396107
-0.378582
-0.323119
-0.248261
-0.169539
-0.0900307
-0.006852
0.0830859
0.170899
0.24912
0.326857
0.439856
0.633944
0.812149
0.94489
1.02308
1.05831
1.0675
-0.33276
-0.33725
-0.339554
-0.322307
-0.272047
-0.205761
-0.136835
-0.0681966
0.00261263
0.0774064
0.148005
0.2057
0.261346
0.332591
0.459994
0.573666
0.656457
0.704432
0.724174
0.725972
-0.217632
-0.220583
-0.221992
-0.211104
-0.180648
-0.138346
-0.0905706
-0.0396165
0.0149737
0.0735401
0.125015
0.160813
0.19301
0.236977
0.32199
0.399663
0.453466
0.483893
0.495355
0.495891
-0.0930062
-0.0940049
-0.0949741
-0.0923373
-0.0825291
-0.0653801
-0.0406055
-0.00869842
0.02969
0.0725232
0.107506
0.124436
0.133679
0.159778
0.219201
0.276403
0.315961
0.337125
0.345566
0.345235
-0.00428138
-0.00445799
-0.00573608
-0.00879363
-0.010953
-0.00818915
0.00174404
0.0195475
0.0453095
0.0753492
0.097818
0.100414
0.0912274
0.109382
0.160512
0.204119
0.232261
0.246938
0.252322
0.251615
0.0422312
0.0420274
0.0404279
0.0365222
0.031671
0.0292413
0.0321833
0.0422077
0.0599362
0.0828718
0.100667
0.0995892
0.0831783
0.104491
0.148801
0.179677
0.196767
0.204034
0.206189
0.205545
0.0611881
0.0608979
0.0595083
0.0562923
0.0523727
0.0498201
0.0509485
0.0580536
0.0724668
0.0939113
0.114475
0.123694
0.124169
0.146761
0.173434
0.190315
0.199194
0.203076
0.204549
0.203746
0.0651387
0.0649817
0.0641652
0.0620491
0.0595952
0.0583843
0.0602263
0.0672609
0.0820422
0.105114
0.133316
0.158759
0.183536
0.204353
0.217262
0.222023
0.225065
0.228302
0.229601
0.228454
0.058853
0.0590021
0.0589465
0.0580841
0.0571061
0.0574943
0.0609761
0.0697594
0.0866624
0.113888
0.149097
0.186699
0.229366
0.252089
0.250725
0.251873
0.256627
0.260985
0.26336
0.261998
0.0421326
0.0425977
0.0432326
0.0435969
0.0442753
0.0466678
0.0525038
0.0639379
0.0847128
0.116262
0.155437
0.194314
0.237946
0.257478
0.260049
0.269585
0.27973
0.290815
0.294674
0.291734
0.0134613
0.0142619
0.0155145
0.0169262
0.019261
0.0239086
0.032485
0.0472926
0.0724195
0.108954
0.149764
0.182474
0.210569
0.223992
0.234343
0.251632
0.269801
0.280265
0.283523
0.282162
-0.0279823
-0.0269953
-0.0253736
-0.023118
-0.0194752
-0.0130916
-0.00226674
0.0157068
0.045391
0.0879964
0.132948
0.162048
0.172294
0.17106
0.197541
0.229622
0.253653
0.262492
0.264259
0.263414
-0.0841607
-0.0829371
-0.0810185
-0.0783113
-0.0741805
-0.067538
-0.0567276
-0.0383928
-0.0076172
0.0409534
0.0996708
0.141006
0.138513
0.137714
0.177834
0.218973
0.244444
0.258121
0.258342
0.258222
-0.15613
-0.154851
-0.153084
-0.150776
-0.147784
-0.14388
-0.138175
-0.127632
-0.106759
-0.0603952
0.0235522
0.102304
0.119806
0.129477
0.177023
0.230782
0.266156
0.277515
0.277408
0.278382
-0.24271
-0.241769
-0.240932
-0.240464
-0.241381
-0.245211
-0.253526
-0.26653
-0.279077
-0.253967
-0.132657
0.00484892
0.0602253
0.0955996
0.176649
0.252297
0.312645
0.329441
0.324346
0.324147
-0.337248
-0.337199
-0.338296
-0.34159
-0.350039
-0.368152
-0.402638
-0.461887
-0.542583
-0.569263
-0.396669
-0.171502
-0.0547959
0.0250718
0.148915
0.264276
0.336425
0.353837
0.348664
0.345061
-0.425739
-0.427078
-0.430944
-0.439665
-0.458743
-0.496837
-0.568844
-0.697716
-0.886836
-0.982561
-0.756265
-0.420633
-0.234169
-0.0906054
0.0699356
0.204045
0.270591
0.272673
0.268816
0.265116
-0.488175
-0.491035
-0.497731
-0.512085
-0.542081
-0.600771
-0.712792
-0.916067
-1.21303
-1.3908
-1.09486
-0.686757
-0.424043
-0.235042
-0.0379304
0.0687409
0.105631
0.113319
0.114779
0.113248
-0.504679
-0.508648
-0.516884
-0.535008
-0.57164
-0.643159
-0.781704
-1.03301
-1.38143
-1.62709
-1.31873
-0.876646
-0.603484
-0.361762
-0.150203
-0.0519197
-0.0451594
-0.046847
-0.0484972
-0.0510561
-0.463861
-0.467733
-0.475991
-0.493603
-0.530675
-0.602641
-0.740769
-0.992541
-1.34325
-1.57468
-1.31097
-0.931429
-0.719532
-0.519795
-0.32425
-0.243609
-0.231187
-0.232326
-0.23539
-0.239449
-0.372283
-0.375242
-0.381597
-0.395595
-0.425448
-0.48419
-0.59776
-0.80525
-1.07757
-1.23258
-1.05393
-0.836507
-0.766819
-0.778325
-0.675055
-0.555633
-0.499828
-0.476252
-0.466317
-0.465759
-0.250726
-0.2523
-0.255738
-0.264189
-0.283171
-0.321469
-0.39706
-0.538586
-0.723723
-0.797546
-0.693062
-0.631819
-0.716468
-1.04679
-1.11609
-0.879452
-0.731418
-0.659674
-0.625612
-0.614114
-0.126301
-0.126601
-0.127662
-0.130798
-0.139202
-0.1573
-0.19427
-0.268693
-0.378251
-0.421818
-0.375605
-0.358855
-0.459329
-0.715166
-0.879975
-0.714777
-0.592016
-0.528345
-0.497114
-0.485799
-0.0194965
-0.0193838
-0.0179056
-0.0162779
-0.0159187
-0.017
-0.0201136
-0.0274219
-0.0464345
-0.0759018
-0.0763853
-0.0911753
-0.0989241
-0.147092
-0.190041
-0.167654
-0.130181
-0.109968
-0.103147
-0.0999126
0.0212201
0.209146
0.428011
0.61392
0.763819
0.88361
0.983807
1.06835
1.10611
1.08334
0.363222
0.496962
0.639333
0.76254
0.866925
0.95389
1.02436
1.07437
1.09984
1.11159
0.604865
0.69582
0.792331
0.877976
0.951861
1.01375
1.06289
1.09876
1.12439
1.142
0.779326
0.84282
0.910395
0.972303
1.02608
1.07168
1.109
1.13861
1.16255
1.18062
0.913414
0.959775
1.00889
1.05577
1.0971
1.13307
1.16372
1.18907
1.21018
1.22788
1.02298
1.0578
1.09801
1.13555
1.16986
1.20049
1.22715
1.24944
1.26777
1.28505
1.1188
1.14866
1.18409
1.21743
1.24844
1.2765
1.30095
1.32118
1.33702
1.35408
1.20947
1.2394
1.2743
1.3071
1.33736
1.36452
1.38784
1.40667
1.42027
1.43732
1.3061
1.33966
1.37688
1.41095
1.44142
1.46797
1.49022
1.50772
1.51976
1.53718
1.422
1.45985
1.49889
1.53349
1.5631
1.58807
1.60862
1.62466
1.63624
1.65433
1.56753
1.60626
1.6424
1.67325
1.69908
1.72131
1.74047
1.75609
1.76859
1.7866
1.74257
1.7745
1.80079
1.82329
1.84335
1.86215
1.87993
1.89645
1.91185
1.92993
1.93135
1.94866
1.96384
1.98014
1.99609
2.01067
2.02391
2.03787
2.05545
2.07561
2.1134
2.12283
2.1344
2.14524
2.15455
2.16417
2.17501
2.1864
2.19778
2.21315
2.32052
2.32422
2.3093
2.29451
2.28827
2.29398
2.31247
2.3428
2.37499
2.40165
2.62687
2.49201
2.4154
2.37309
2.35569
2.35965
2.38707
2.44349
2.54612
2.77049
0.90648
0.904349
0.899863
0.891232
0.879
0.866859
0.85661
0.848683
0.843012
0.839679
0.839212
0.841827
0.846825
0.853965
0.86329
0.874783
0.887399
0.89841
0.90451
0.907555
0.830946
0.836791
0.843127
0.847614
0.850074
0.849737
0.84698
0.843138
0.839574
0.837226
0.836959
0.839028
0.842578
0.846776
0.850514
0.852344
0.851369
0.847857
0.842669
0.836038
0.822554
0.82485
0.828252
0.831244
0.833313
0.834797
0.83553
0.835176
0.83409
0.833114
0.833158
0.834441
0.836132
0.837334
0.837431
0.836476
0.834875
0.832498
0.829207
0.826276
0.817085
0.818171
0.820004
0.822382
0.824403
0.825821
0.826821
0.827532
0.827868
0.827986
0.828327
0.828971
0.82942
0.829361
0.828845
0.827912
0.826375
0.824235
0.822109
0.820713
0.811942
0.812604
0.813716
0.815427
0.817213
0.81884
0.820117
0.82109
0.821896
0.822569
0.823127
0.823479
0.823493
0.823174
0.822477
0.821311
0.819789
0.818168
0.816798
0.816005
0.807045
0.807503
0.808297
0.809613
0.811117
0.812642
0.814101
0.815365
0.816424
0.817345
0.818056
0.818385
0.818306
0.817829
0.816953
0.81581
0.814554
0.813315
0.812331
0.811801
0.802332
0.802671
0.803292
0.80439
0.805714
0.80711
0.808555
0.809979
0.811279
0.812406
0.813271
0.813672
0.813562
0.813018
0.812181
0.811203
0.810179
0.80917
0.808414
0.808024
0.797758
0.798018
0.798524
0.799478
0.8007
0.802034
0.80344
0.804907
0.806376
0.807733
0.808791
0.809294
0.809226
0.808767
0.808079
0.807259
0.806381
0.805552
0.804957
0.804659
0.793271
0.793471
0.793893
0.794749
0.795906
0.797203
0.798598
0.800088
0.801643
0.803182
0.804468
0.805162
0.805281
0.805011
0.804491
0.803825
0.803091
0.802407
0.801936
0.801705
0.788814
0.788965
0.789325
0.790122
0.791258
0.792552
0.793981
0.795542
0.797225
0.798969
0.800522
0.801485
0.80184
0.801774
0.801422
0.800899
0.800294
0.79972
0.799346
0.799169
0.784363
0.784474
0.784787
0.785549
0.786688
0.788017
0.789519
0.791209
0.793062
0.795033
0.796911
0.798247
0.798907
0.799062
0.798885
0.798506
0.798022
0.797549
0.797258
0.797124
0.779873
0.77995
0.780226
0.780969
0.782124
0.783503
0.785068
0.786881
0.788979
0.791319
0.793628
0.795343
0.796313
0.796763
0.796844
0.796655
0.796309
0.79594
0.795724
0.795629
0.775313
0.775354
0.775596
0.776319
0.777496
0.778937
0.780611
0.782588
0.784905
0.787579
0.790398
0.792697
0.79418
0.795011
0.795368
0.795408
0.795238
0.794997
0.794863
0.794807
0.770707
0.770709
0.770925
0.771629
0.772834
0.774362
0.776182
0.778408
0.781127
0.784365
0.787845
0.790748
0.79271
0.793949
0.794643
0.794961
0.794998
0.794923
0.794882
0.794859
0.76589
0.765894
0.766072
0.766718
0.767881
0.769433
0.771381
0.773854
0.776963
0.780794
0.785073
0.78882
0.791502
0.793316
0.794449
0.795174
0.79559
0.795772
0.795846
0.795841
0.760416
0.760398
0.760595
0.761237
0.762429
0.764096
0.766299
0.769193
0.772924
0.777588
0.782877
0.78758
0.791011
0.793446
0.795153
0.796284
0.797027
0.797444
0.797616
0.797622
0.753987
0.75396
0.754171
0.754847
0.75615
0.75803
0.760584
0.763998
0.768474
0.774167
0.780712
0.786614
0.791022
0.794214
0.796495
0.798119
0.79922
0.799877
0.80014
0.800152
0.746261
0.746224
0.746476
0.747276
0.748774
0.750987
0.754051
0.758196
0.763682
0.77069
0.778787
0.786139
0.791659
0.795712
0.79865
0.800777
0.80226
0.80315
0.803489
0.803507
0.736847
0.736798
0.737121
0.738109
0.739934
0.742651
0.746435
0.751577
0.758389
0.767089
0.777109
0.786188
0.793029
0.798069
0.801742
0.804429
0.80631
0.80741
0.807819
0.807845
0.725299
0.725234
0.725653
0.726913
0.729207
0.73262
0.737394
0.743877
0.752424
0.76326
0.775646
0.78681
0.795195
0.801372
0.805895
0.809227
0.811565
0.812896
0.813383
0.813416
0.710995
0.71091
0.711465
0.713109
0.716079
0.720492
0.726641
0.734927
0.745746
0.759279
0.774543
0.788167
0.798355
0.805867
0.811406
0.815497
0.818291
0.819857
0.820439
0.820482
0.693108
0.692999
0.693757
0.695939
0.699873
0.705722
0.713795
0.724521
0.738279
0.75516
0.773865
0.79037
0.802673
0.811749
0.818454
0.823334
0.826692
0.828557
0.829255
0.829303
0.670373
0.670253
0.671359
0.674359
0.679687
0.687633
0.698427
0.712472
0.730027
0.751028
0.773794
0.79361
0.808316
0.81918
0.827203
0.833037
0.837002
0.839221
0.840041
0.840087
0.640601
0.640514
0.642277
0.646677
0.654249
0.665392
0.680129
0.698693
0.721112
0.747089
0.774535
0.798055
0.81542
0.828267
0.837771
0.84469
0.849398
0.852026
0.852964
0.852996
0.599734
0.599829
0.603057
0.610378
0.622019
0.638305
0.658792
0.683396
0.711863
0.743672
0.776353
0.803891
0.824097
0.839066
0.850187
0.858337
0.863922
0.866993
0.868022
0.868026
0.540111
0.541416
0.549289
0.562979
0.582139
0.606497
0.634974
0.667232
0.702851
0.741198
0.779492
0.811209
0.834331
0.851471
0.864284
0.873784
0.880363
0.883888
0.884959
0.884918
0.46878
0.470899
0.485826
0.509501
0.539214
0.573024
0.610271
0.650737
0.694106
0.739792
0.784778
0.82188
0.849046
0.869357
0.884696
0.896174
0.904255
0.908612
0.90979
0.909816
0.395425
0.402274
0.424342
0.457934
0.497371
0.540381
0.586329
0.635027
0.686192
0.739329
0.791181
0.833824
0.865113
0.888694
0.906798
0.920636
0.930392
0.934835
0.936459
0.936823
0.336537
0.345306
0.37205
0.41238
0.459372
0.510146
0.563855
0.62018
0.67873
0.738925
0.797207
0.844885
0.879783
0.906056
0.926209
0.941573
0.95237
0.958002
0.960482
0.960979
0.28863
0.297959
0.32817
0.373392
0.426137
0.483121
0.543338
0.606323
0.671519
0.738207
0.802361
0.854508
0.892458
0.920882
0.942626
0.959272
0.971102
0.977584
0.980418
0.980982
0.24847
0.258011
0.290515
0.339537
0.396933
0.459029
0.524732
0.593492
0.664581
0.737111
0.806576
0.862663
0.903179
0.933337
0.956279
0.973798
0.986358
0.993503
0.996572
0.997166
0.213549
0.22317
0.257378
0.30945
0.3707
0.437143
0.507607
0.581439
0.6578
0.735622
0.809917
0.869545
0.912275
0.943811
0.967603
0.985636
0.99856
1.00612
1.00931
1.00994
0.182307
0.191955
0.227474
0.282133
0.346596
0.416767
0.491423
0.569798
0.650951
0.733654
0.812449
0.875372
0.920104
0.952797
0.977213
0.995532
1.00861
1.01634
1.01951
1.02019
0.153552
0.163245
0.199858
0.25672
0.323964
0.39741
0.475778
0.558248
0.643804
0.731087
0.814193
0.880295
0.926967
0.960751
0.985723
1.00429
1.01742
1.02527
1.02843
1.02904
0.126514
0.136263
0.173848
0.232601
0.302325
0.378676
0.460359
0.546551
0.636183
0.727804
0.815109
0.884413
0.933058
0.967998
0.993584
1.01244
1.02569
1.03352
1.03671
1.03717
0.100698
0.110525
0.149013
0.20939
0.281356
0.360295
0.444962
0.534543
0.627952
0.723704
0.81516
0.887755
0.938541
0.974788
1.00111
1.02033
1.03373
1.04154
1.04469
1.04513
0.0756867
0.0856836
0.125
0.186892
0.26084
0.3421
0.429456
0.522118
0.619033
0.718721
0.814305
0.890376
0.943534
0.981278
1.00849
1.0282
1.04181
1.04963
1.05267
1.0531
0.0513092
0.0615455
0.101594
0.16494
0.240649
0.323977
0.413759
0.509228
0.609378
0.712816
0.812525
0.892254
0.948023
0.987511
1.0158
1.03612
1.05002
1.05784
1.06074
1.06112
0.0275133
0.0379658
0.0787592
0.143413
0.220716
0.305904
0.397856
0.495856
0.598977
0.705956
0.809731
0.893276
0.951972
0.993495
1.02307
1.04413
1.05832
1.06611
1.06884
1.06912
0.00417339
0.0149333
0.0564478
0.122292
0.201029
0.287875
0.381758
0.482025
0.587845
0.698113
0.805829
0.893351
0.955298
0.999199
1.0303
1.0522
1.0667
1.0744
1.07689
1.07705
-0.0186348
-0.00759344
0.0346452
0.101585
0.181608
0.269924
0.365518
0.467786
0.576011
0.689281
0.800781
0.892363
0.957864
1.00455
1.0375
1.06037
1.07509
1.08255
1.08474
1.08479
-0.0409427
-0.0295993
0.0133788
0.0813214
0.162496
0.252105
0.349193
0.453213
0.563547
0.67951
0.794555
0.89018
0.95949
1.00941
1.04468
1.06871
1.08352
1.09049
1.09227
1.09219
-0.0625645
-0.0509936
-0.00730331
0.0615508
0.143754
0.234501
0.332863
0.43839
0.550546
0.668875
0.78713
0.886688
0.959977
1.01359
1.05182
1.07745
1.09219
1.09821
1.09931
1.09909
-0.0836287
-0.0717248
-0.0273657
0.0423123
0.125425
0.217158
0.316626
0.423412
0.537108
0.657464
0.778535
0.881789
0.959099
1.01678
1.05875
1.08686
1.10172
1.10605
1.10581
1.10534
-0.103968
-0.0917618
-0.0467755
0.023662
0.107593
0.200166
0.300569
0.408403
0.52335
0.645361
0.76884
0.875421
0.956649
1.01856
1.06503
1.09706
1.11326
1.11558
1.11241
1.11069
-0.123634
-0.111147
-0.0654789
0.0056553
0.0903018
0.183597
0.284779
0.393447
0.509391
0.632721
0.758148
0.867541
0.952466
1.01845
1.06978
1.10732
1.12759
1.13033
1.12325
1.11279
-0.142545
-0.129836
-0.0835782
-0.011859
0.0733415
0.167165
0.26891
0.37813
0.494762
0.619006
0.745873
0.857502
0.945928
1.01578
1.07161
1.11583
1.14334
1.15045
1.14304
1.13284
-0.16065
-0.14773
-0.101077
-0.0288385
0.0567255
0.150869
0.252989
0.36244
0.479432
0.604122
0.73187
0.845005
0.936393
1.00989
1.06794
1.11687
1.14784
1.15979
1.12487
1.07013
-0.177695
-0.164072
-0.117874
-0.0452294
0.0403367
0.13458
0.236972
0.346501
0.463472
0.588154
0.71612
0.82995
0.922986
1.00059
1.05715
1.09888
1.13075
1.12348
1.06609
0.998883
-0.193967
-0.179623
-0.133779
-0.0604425
0.0244993
0.118771
0.220644
0.330375
0.447031
0.571282
0.698671
0.812248
0.90476
0.989015
1.03903
1.09165
1.06831
1.03058
0.960582
0.889783
-0.179759
-0.16173
-0.113338
-0.0362113
0.0535389
0.151458
0.258518
0.371048
0.490565
0.61793
0.738762
0.83901
0.922989
1.0117
1.06507
0.982587
0.940226
0.878553
0.804221
0.754512
-0.20407
-0.18749
-0.152143
-0.0845444
2.84379e-05
0.0937393
0.195686
0.30469
0.420376
0.543085
0.668128
0.779259
0.867867
0.946308
1.01662
1.01958
0.898907
0.814831
0.751496
0.665494
-0.223866
-0.208164
-0.166995
-0.0979805