/*--------------------------------*- C++ -*----------------------------------*\
  =========                 |
  \\      /  F ield         | OpenFOAM: The Open Source CFD Toolbox
   \\    /   O peration     | Website:  https://openfoam.org
    \\  /    A nd           | Version:  9
     \\/     M anipulation  |
\*---------------------------------------------------------------------------*/
FoamFile
{
    format      ascii;
    class       surfaceScalarField;
    location    "39";
    object      phi;
}
// * * * * * * * * * * * * * * * * * * * * * * * * * * * * * * * * * * * * * //

dimensions      [0 3 -1 0 0 0 0];

internalField   nonuniform List<scalar> 
17370
(
-0.0916071
0.0960071
0.284611
-0.0775908
0.0594147
0.364952
-0.0430369
0.0316181
0.427587
-0.022314
0.0162606
0.505305
-0.0116654
0.00878903
0.602279
-0.00657587
0.00509228
0.720541
-0.00386176
0.00299033
0.863778
-0.00222703
0.00165504
1.03602
-0.00112726
0.000707928
1.24292
-0.000297611
-9.51187e-05
1.49158
0.000481451
-0.000887416
1.4916
0.0012886
-0.00179377
1.2432
0.00234758
-0.00309629
1.03639
0.00396004
-0.00518524
0.864132
0.00666319
-0.0088672
0.721262
0.0117322
-0.0163123
0.603795
0.0223515
-0.0316407
0.508728
0.0430444
-0.0594122
0.432536
0.0775899
-0.0960047
0.36519
0.0916197
0.197391
-0.127087
0.0880175
0.0390695
-0.36435
0.354024
-0.0714791
0.0818052
-0.446655
0.454247
-0.0791689
0.0715771
-0.521009
0.529106
-0.0637283
0.0556318
-0.612987
0.620757
-0.0482448
0.040474
-0.72716
0.733679
-0.0338607
0.027341
-0.86758
0.872419
-0.0221432
0.0173042
-1.03856
1.04189
-0.01362
0.0102937
-1.24471
1.24711
-0.00775085
0.00535093
-1.49284
1.49485
-0.00339126
0.00138174
-1.49269
1.49451
0.000436308
-0.00225219
-1.24411
1.24602
0.00422239
-0.00613184
-1.03761
1.04009
0.00847007
-0.0109559
-0.866188
0.869827
0.0142241
-0.017863
-0.724596
0.729758
0.02266
-0.0278216
-0.609068
0.615641
0.0343003
-0.040873
-0.515127
0.522467
0.0485965
-0.0559365
-0.43988
0.447665
0.0639657
-0.0717509
-0.374712
0.377358
0.079256
-0.0819019
-0.256904
0.224448
0.0715539
-0.0390975
-0.0688001
0.0591857
0.00961439
-0.052123
0.0589585
-0.374831
0.367996
-0.0581143
0.0542753
-0.453939
0.457778
-0.0487896
0.0442309
-0.527607
0.532166
-0.0396802
0.0357842
-0.620789
0.624685
-0.0315741
0.027588
-0.734649
0.738636
-0.0232485
0.0193798
-0.873946
0.877815
-0.0153532
0.0119093
-1.04335
1.04679
-0.00840136
0.00537719
-1.24864
1.25166
-0.00217653
-0.000800522
-1.49694
1.49992
0.00375687
-0.00690081
-1.49742
1.50056
0.00984568
-0.013251
-1.25007
1.25348
0.0165957
-0.0205153
-1.04566
1.04958
0.0242953
-0.0285485
-0.877146
0.881399
0.032461
-0.0365906
-0.738993
0.743123
0.040414
-0.0448901
-0.625985
0.630461
0.049388
-0.0548153
-0.535027
0.540455
0.05859
-0.059358
-0.458088
0.458856
0.0524221
-0.0320479
-0.336783
0.316408
0.00966809
-0.0686755
0.0590074
-0.0533932
0.0492787
0.00411443
-0.0332649
0.0436981
-0.358539
0.348106
-0.0473805
0.0467979
-0.459562
0.460145
-0.043872
0.0406603
-0.536113
0.539324
-0.0369837
0.0336313
-0.628373
0.631725
-0.0300053
0.0267789
-0.742012
0.745239
-0.023349
0.0201724
-0.881311
0.884488
-0.0165989
0.0132616
-1.05021
1.05355
-0.00957868
0.00618869
-1.25492
1.25831
-0.00241309
-0.00119101
-1.50326
1.50687
0.00476783
-0.00846321
-1.50406
1.50775
0.011744
-0.0152812
-1.25704
1.26058
0.0184734
-0.0218869
-1.05329
1.0567
0.024929
-0.0282291
-0.885007
0.888307
0.0313478
-0.0348612
-0.74681
0.750323
0.0381113
-0.0416767
-0.634591
0.638156
0.0447924
-0.0476131
-0.544606
0.547427
0.0480896
-0.0442616
-0.456983
0.453155
0.0336524
-0.0163593
-0.297109
0.279815
0.00417268
-0.0531634
0.0489907
-0.0461053
0.0435463
0.00255895
-0.0230718
0.0334343
-0.3375
0.327138
-0.0391792
0.0401356
-0.459884
0.458927
-0.0388912
0.036568
-0.541967
0.544291
-0.0339305
0.0313902
-0.634676
0.637216
-0.0284243
0.0255937
-0.748317
0.751147
-0.0223812
0.0193913
-0.887542
0.890532
-0.0160643
0.0129512
-1.05672
1.05983
-0.00941843
0.00603951
-1.26169
1.26507
-0.00214907
-0.00163384
-1.51059
1.51437
0.00538195
-0.00916549
-1.51154
1.51532
0.0123994
-0.0157385
-1.26405
1.26739
0.0186583
-0.0217716
-1.05991
1.06303
0.0245792
-0.0276118
-0.891503
0.894536
0.030293
-0.0331047
-0.753505
0.756316
0.0355071
-0.0379983
-0.64112
0.643611
0.0401968
-0.0412808
-0.549275
0.550359
0.0401616
-0.0341828
-0.44805
0.442071
0.0235664
-0.0103481
-0.264654
0.251436
0.00263079
-0.0457544
0.0431236
-0.0414241
0.0396199
0.0018042
-0.0169715
0.0262725
-0.317253
0.307952
-0.0328841
0.0350147
-0.457352
0.455222
-0.0345872
0.0328926
-0.546306
0.548
-0.0306671
0.0285441
-0.63951
0.641633
-0.0261194
0.0237632
-0.753738
0.756094
-0.0209809
0.0182643
-0.893377
0.896094
-0.0151101
0.0121021
-1.06285
1.06586
-0.00866572
0.00537797
-1.26837
1.27166
-0.00156898
-0.00215134
-1.51813
1.52185
0.00582635
-0.00950021
-1.51907
1.52274
0.012605
-0.0157973
-1.27067
1.27386
0.0185579
-0.0214315
-1.06606
1.06893
0.0239028
-0.0264432
-0.897322
0.899862
0.0286033
-0.0308308
-0.758763
0.760991
0.0327807
-0.0348216
-0.645853
0.647894
0.0363397
-0.0365517
-0.550959
0.551171
0.0341741
-0.0272239
-0.435513
0.428563
0.0175853
-0.00743906
-0.239897
0.229751
0.00189165
-0.0409242
0.0390326
-0.0380664
0.0367108
0.0013556
-0.0129724
0.0209877
-0.299295
0.29128
-0.0277749
0.0307139
-0.452649
0.44971
-0.0309372
0.0298276
-0.549421
0.550531
-0.0278422
0.0259317
-0.64367
0.645581
-0.0237436
0.0216298
-0.758321
0.760435
-0.0191559
0.0167169
-0.898626
0.901065
-0.0138274
0.0110015
-1.06873
1.07156
-0.00770765
0.00452647
-1.27487
1.27805
-0.000832273
-0.00276546
-1.52549
1.52908
0.00630591
-0.00982968
-1.52635
1.52987
0.0127802
-0.0157643
-1.27699
1.27997
0.0182773
-0.0208141
-1.07166
1.0742
0.0229453
-0.025113
-0.902178
0.904345
0.0269757
-0.0289115
-0.763037
0.764973
0.0306041
-0.032371
-0.649781
0.651548
0.033228
-0.0327074
-0.551026
0.550505
0.0294188
-0.0221716
-0.42141
0.414163
0.0137255
-0.00572531
-0.220781
0.212781
0.00146191
-0.0373849
0.035923
-0.0355265
0.0344816
0.00104487
-0.0101438
0.0169321
-0.283901
0.277113
-0.0234699
0.0268734
-0.446514
0.443111
-0.0276759
0.0269992
-0.551406
0.552082
-0.0252496
0.0234841
-0.647447
0.649212
-0.0214503
0.0194802
-0.762488
0.764458
-0.0171669
0.014895
-0.903366
0.905638
-0.0122205
0.00959596
-1.07422
1.07684
-0.00650494
0.00348154
-1.28111
1.28414
5.95017e-05
-0.00350646
-1.53259
1.53604
0.00688435
-0.0102106
-1.53331
1.53664
0.0129473
-0.0156569
-1.28285
1.28556
0.0178992
-0.0201396
-1.07659
1.07884
0.0220253
-0.0239441
-0.906378
0.908297
0.0255893
-0.0273047
-0.766772
0.768487
0.0288042
-0.0302616
-0.653175
0.654633
0.0306238
-0.0294087
-0.549654
0.548439
0.0255271
-0.0183884
-0.40695
0.399811
0.0110623
-0.00458004
-0.205613
0.199131
0.00117376
-0.0346242
0.0334504
-0.0335635
0.0327482
0.000815266
-0.008045
0.013757
-0.270891
0.265179
-0.0198204
0.0234371
-0.439589
0.435972
-0.0247356
0.0243191
-0.552658
0.553074
-0.0228548
0.0212113
-0.650963
0.652607
-0.0192887
0.0174207
-0.766386
0.768254
-0.0152192
0.0130505
-0.907796
0.909964
-0.0104928
0.00799094
-1.07933
1.08183
-0.00506053
0.00220106
-1.28703
1.28989
0.00114263
-0.00439765
-1.53937
1.54262
0.00756718
-0.0106528
-1.53985
1.54293
0.0131616
-0.0156241
-1.28817
1.29063
0.0176558
-0.0196789
-1.08098
1.083
0.0213697
-0.02308
-0.910113
0.911823
0.0245432
-0.0260709
-0.770092
0.771619
0.0273814
-0.0284676
-0.655889
0.656976
0.0284698
-0.0266111
-0.546914
0.545056
0.0223662
-0.0155398
-0.392827
0.386
0.00916422
-0.00377681
-0.193249
0.187861
0.000971586
-0.0323925
0.0314209
-0.0320319
0.0313945
0.00063745
-0.00642233
0.011209
-0.259957
0.255171
-0.016682
0.0203062
-0.432349
0.428725
-0.0219434
0.0217705
-0.553397
0.55357
-0.0205647
0.0190052
-0.654247
0.655807
-0.0171605
0.0153588
-0.770095
0.771897
-0.0132336
0.0111414
-0.912025
0.914117
-0.00867825
0.00627606
-1.0842
1.0866
-0.00347116
0.000746442
-1.29262
1.29535
0.0024229
-0.00549061
-1.54576
1.54882
0.00845227
-0.0113027
-1.5459
1.54875
0.0135964
-0.0158279
-1.29302
1.29525
0.0176511
-0.0194534
-1.08495
1.08675
0.0209522
-0.0224692
-0.913438
0.914955
0.0237703
-0.0251245
-0.773034
0.774388
0.0262895
-0.0269848
-0.657846
0.658542
0.0266321
-0.0242531
-0.542958
0.540579
0.0198152
-0.013386
-0.379384
0.372955
0.00778493
-0.00320138
-0.182918
0.178334
0.000827635
-0.0305346
0.029707
-0.0308385
0.0303447
0.000493754
-0.00511344
0.00909924
-0.250812
0.246827
-0.0139348
0.0174163
-0.425185
0.421703
-0.0192465
0.0192707
-0.553691
0.553667
-0.0182667
0.0167451
-0.65741
0.658932
-0.0149316
0.0131604
-0.773678
0.775449
-0.0110817
0.00904901
-0.916087
0.918119
-0.00666814
0.00435323
-1.08887
1.09118
-0.00165647
-0.0009477
-1.29795
1.30055
0.00395293
-0.00682692
-1.55176
1.55463
0.00957232
-0.0121905
-1.55149
1.55411
0.0142744
-0.0162787
-1.2974
1.2994
0.0178971
-0.0194767
-1.08847
1.09005
0.0207784
-0.0220938
-0.916382
0.917697
0.0232326
-0.0244348
-0.775652
0.776854
0.025443
-0.0257936
-0.659037
0.659387
0.0250864
-0.0222962
-0.538023
0.535232
0.017782
-0.0117595
-0.366752
0.36073
0.00677549
-0.00278716
-0.174086
0.170097
0.000725436
-0.0289447
0.0282193
-0.0299211
0.0295497
0.000371325
-0.00400699
0.00728098
-0.243224
0.23995
-0.0114579
0.0146844
-0.418371
0.415144
-0.0165938
0.0168036
-0.553609
0.553399
-0.0159252
0.0145146
-0.660474
0.661885
-0.0127334
0.0109729
-0.777199
0.778959
-0.00889845
0.00687292
-0.920038
0.922063
-0.00451404
0.00224008
-1.09338
1.09565
0.000378397
-0.00288935
-1.30304
1.30555
0.00575414
-0.00845808
-1.55738
1.56008
0.0110044
-0.0133954
-1.55661
1.559
0.0152666
-0.0170406
-1.30134
1.30311
0.0184578
-0.0198316
-1.09157
1.09294
0.0209602
-0.0220987
-0.918953
0.920091
0.0230848
-0.0241137
-0.77795
0.778979
0.0248622
-0.0249255
-0.659586
0.659649
0.0238382
-0.0206993
-0.532291
0.529152
0.0161747
-0.0105322
-0.354926
0.349283
0.00603619
-0.0024907
-0.166365
0.162819
0.000654399
-0.0275436
0.0268892
-0.0292411
0.0289803
0.000260765
-0.00302525
0.00564863
-0.237026
0.234403
-0.00915594
0.0120278
-0.412126
0.409254
-0.0138799
0.0141848
-0.553206
0.552901
-0.013376
0.0120427
-0.663331
0.664665
-0.010273
0.00850302
-0.780695
0.782465
-0.00641872
0.00439596
-0.923968
0.925991
-0.00205931
-0.000172549
-1.0978
1.10003
0.00273784
-0.00516829
-1.30794
1.31037
0.00791377
-0.0104703
-1.56267
1.56522
0.012835
-0.0150045
-1.56127
1.56344
0.0166635
-0.0182005
-1.30481
1.30635
0.0194091
-0.020567
-1.09426
1.09542
0.0215064
-0.0224452
-0.921162
0.922101
0.0232441
-0.0240447
-0.779888
0.780689
0.0245274
-0.0243262
-0.659547
0.659346
0.0228689
-0.0194417
-0.525901
0.522473
0.0149429
-0.00962872
-0.343844
0.33853
0.00550904
-0.00228688
-0.159471
0.156249
0.000608332
-0.0262746
0.0256662
-0.0287776
0.0286225
0.000155119
-0.00210525
0.00410922
-0.232113
0.230109
-0.00693375
0.00937736
-0.406632
0.404188
-0.0110632
0.0113802
-0.552674
0.552358
-0.0105966
0.00928597
-0.666084
0.667395
-0.00748971
0.0056838
-0.784212
0.786018
-0.00357113
0.0015351
-0.927879
0.929915
0.000801859
-0.00302955
-1.10214
1.10437
0.00555729
-0.00792303
-1.31268
1.31505
0.0105448
-0.0129285
-1.56764
1.57002
0.0150785
-0.0169998
-1.56547
1.5674
0.0184195
-0.0196837
-1.3078
1.30906
0.020641
-0.0215287
-1.09647
1.09736
0.02224
-0.0229614
-0.922961
0.923682
0.023596
-0.0242431
-0.781438
0.782085
0.024442
-0.0239621
-0.658932
0.658452
0.0221664
-0.0184905
-0.518972
0.515296
0.0140246
-0.00897872
-0.333404
0.328359
0.00514376
-0.00215298
-0.153184
0.150194
0.000580616
-0.0250916
0.0245109
-0.0285242
0.028475
4.9242e-05
-0.0011968
0.00258727
-0.228432
0.227041
-0.00470662
0.00665748
-0.402029
0.400078
-0.00809203
0.00837189
-0.552169
0.551889
-0.00761251
0.00633293
-0.668809
0.670089
-0.00451251
0.00265466
-0.787787
0.789644
-0.000465679
-0.00164347
-0.931822
0.933931
0.00404968
-0.00631389
-1.10648
1.10875
0.00884683
-0.0111773
-1.3173
1.31964
0.0137107
-0.0159567
-1.57227
1.57452
0.01792
-0.0195993
-1.56918
1.57086
0.0207874
-0.0218001
-1.31026
1.31127
0.0225332
-0.0231785
-1.09818
1.09883
0.0236548
-0.0241104
-0.92432
0.924776
0.0245066
-0.0249119
-0.782607
0.783012
0.0247788
-0.0239506
-0.657676
0.656848
0.0217833
-0.0178462
-0.511564
0.507627
0.0133927
-0.00855012
-0.32348
0.318638
0.00491974
-0.00208263
-0.147325
0.144488
0.000571454
-0.0239564
0.0233849
-0.0284841
0.0285452
-6.1167e-05
-0.000248916
0.0010117
-0.225978
0.225215
-0.0023868
0.00375968
-0.39846
0.397087
-0.00481301
0.00494994
-0.551813
0.551676
-0.00414492
0.00284225
-0.671503
0.672806
-0.000964191
-0.000980885
-0.791463
0.793408
0.00327603
-0.00546925
-0.935913
0.938106
0.00794952
-0.0102587
-1.11089
1.1132
0.0128099
-0.0151201
-1.32185
1.32416
0.0175752
-0.0196818
-1.57663
1.57874
0.0214336
-0.0228387
-1.57238
1.57378
0.0237415
-0.024427
-1.31217
1.31286
0.0248564
-0.0251735
-1.09938
1.0997
0.0253699
-0.0255474
-0.925172
0.92535
0.0257335
-0.0258618
-0.78316
0.783288
0.0254716
-0.0241896
-0.655664
0.654382
0.0216406
-0.0174722
-0.503691
0.499523
0.0130208
-0.00831705
-0.313957
0.309253
0.00481653
-0.00206363
-0.141749
0.138996
0.000575249
-0.0228373
0.0222621
-0.0286724
0.028867
-0.000194606
0.000724719
-0.000651674
-0.224783
0.22471
7.76582e-05
0.000647734
-0.396075
0.395349
-0.00121292
0.00110052
-0.551845
0.551958
-0.000154282
-0.00127776
-0.67433
0.675763
0.00327847
-0.00533217
-0.795315
0.797369
0.00773527
-0.0100212
-0.940141
0.942427
0.0125986
-0.0149847
-1.11538
1.11776
0.0175905
-0.0199059
-1.32636
1.32867
0.0222928
-0.0242476
-1.58069
1.58265
0.0257736
-0.0268858
-1.57502
1.57613
0.0274984
-0.0278271
-1.31341
1.31374
0.0279242
-0.0278834
-1.0999
1.09986
0.02776
-0.0276109
-0.925434
0.925285
0.0275148
-0.0272945
-0.783064
0.782843
0.0266008
-0.0248284
-0.652811
0.651039
0.0218968
-0.0174606
-0.495386
0.49095
0.01295
-0.00829834
-0.304685
0.300033
0.00484701
-0.00210513
-0.136313
0.133571
0.000596817
-0.0217045
0.0211077
-0.0291294
0.0294678
-0.000338439
0.00184608
-0.00241928
-0.224952
0.225525
0.00273441
-0.00277068
-0.395006
0.395043
0.00280597
-0.00322779
-0.55248
0.552902
0.0043202
-0.00586301
-0.677437
0.67898
0.00800161
-0.0102163
-0.799382
0.801597
0.0128261
-0.0153068
-0.944579
0.947059
0.0180857
-0.0206271
-1.12004
1.12258
0.0233531
-0.0257118
-1.33087
1.33323
0.0280531
-0.0298583
-1.58443
1.58624
0.0311416
-0.0319198
-1.57703
1.57781
0.0322087
-0.0321627
-1.31393
1.31389
0.031909
-0.031499
-1.09966
1.09925
0.0310458
-0.0305292
-0.924979
0.924462
0.0300826
-0.0294122
-0.782199
0.781528
0.0282976
-0.0259509
-0.649066
0.64672
0.0225627
-0.0178028
-0.486553
0.481793
0.0131743
-0.00848688
-0.295498
0.290811
0.00500281
-0.0022006
-0.130876
0.128073
0.000633233
-0.0205254
0.0198922
-0.0298774
0.0303908
-0.000513394
0.00312179
-0.00451466
-0.226524
0.227917
0.00577049
-0.00663965
-0.395458
0.396327
0.00742798
-0.00828551
-0.553852
0.554709
0.00961607
-0.0113289
-0.680817
0.68253
0.0136787
-0.0161249
-0.803783
0.806229
0.0190118
-0.0217409
-0.949416
0.952145
0.0247658
-0.0274918
-1.125
1.12773
0.0303616
-0.0327829
-1.33547
1.33789
0.0350964
-0.0367651
-1.58788
1.58955
0.0377916
-0.03819
-1.57835
1.57875
0.0380879
-0.0375942
-1.31364
1.31315
0.0369291
-0.0360765
-1.09861
1.09776
0.0352353
-0.0342992
-0.923705
0.922769
0.0334754
-0.032258
-0.780352
0.779135
0.0305901
-0.0276136
-0.644228
0.641251
0.0237402
-0.0186029
-0.477108
0.471971
0.0137625
-0.00891577
-0.286212
0.281365
0.00529654
-0.0023506
-0.125293
0.122347
0.000682183
-0.0192728
0.0185906
-0.0309888
0.0317317
-0.000742859
0.00466066
-0.0069477
-0.229737
0.232024
0.00926643
-0.0110531
-0.397625
0.399412
0.0127029
-0.0141553
-0.556263
0.557716
0.015924
-0.017967
-0.684666
0.686709
0.020672
-0.0234376
-0.808654
0.811419
0.0266567
-0.0296672
-0.954733
0.957744
0.0329713
-0.0359139
-1.13033
1.13327
0.0389577
-0.041454
-1.34017
1.34267
0.0437216
-0.045196
-1.59101
1.59248
0.0458975
-0.0458667
-1.57886
1.57883
0.0453095
-0.044324
-1.31239
1.31141
0.0431757
-0.041786
-1.0966
1.09521
0.0404759
-0.0390589
-0.92151
0.920093
0.0378069
-0.0360378
-0.77739
0.77562
0.0338076
-0.0301597
-0.638187
0.634539
0.0257081
-0.0200483
-0.466907
0.461248
0.0148463
-0.0096715
-0.276562
0.271387
0.00577768
-0.00257393
-0.119386
0.116182
0.000747804
-0.0179198
0.017172
-0.0325522
0.0335813
-0.00102907
0.00650456
-0.00982928
-0.234741
0.238066
0.0133599
-0.0161763
-0.401733
0.40455
0.0187617
-0.0208761
-0.56002
0.562134
0.0231964
-0.0256856
-0.689296
0.691785
0.0288745
-0.0320724
-0.81417
0.817368
0.0357487
-0.0391534
-0.960624
0.964029
0.042856
-0.0461113
-1.13611
1.13936
0.0494119
-0.0520306
-1.34503
1.34765
0.0542697
-0.0555401
-1.59372
1.59499
0.055884
-0.0553542
-1.57848
1.57795
0.0542844
-0.0526858
-1.31004
1.30844
0.0510006
-0.0490476
-1.09343
1.09148
0.0472319
-0.045287
-0.918266
0.916322
0.0435278
-0.0411596
-0.773296
0.770927
0.03826
-0.0338136
-0.630825
0.626378
0.0286519
-0.0223104
-0.455664
0.449323
0.0165674
-0.0108437
-0.2662
0.260476
0.00649319
-0.00288758
-0.112914
0.109309
0.000833658
-0.0164332
0.0155996
-0.0346736
0.0360843
-0.00141072
0.00886113
-0.0134445
-0.24179
0.246373
0.0183873
-0.0223744
-0.408047
0.412034
0.0260173
-0.028897
-0.565338
0.568217
0.031888
-0.0349486
-0.694926
0.697986
0.0387882
-0.0425838
-0.820574
0.824369
0.0469127
-0.0508826
-0.967357
0.971327
0.0551328
-0.0587831
-1.14254
1.14619
0.0623637
-0.0650704
-1.3501
1.35281
0.0671981
-0.0681529
-1.59596
1.59691
0.0680131
-0.0668543
-1.57701
1.57585
0.0651769
-0.0629163
-1.30641
1.30415
0.0606547
-0.0580909
-1.08901
1.08645
0.055748
-0.0532203
-0.913866
0.911338
0.0508398
-0.0477817
-0.768007
0.764949
0.0441096
-0.0387524
-0.621876
0.616519
0.0327584
-0.0255336
-0.443064
0.435839
0.0190047
-0.0124562
-0.254663
0.248114
0.00744622
-0.00329153
-0.105587
0.101433
0.0009407
-0.0147705
0.0138298
-0.0375337
0.039487
-0.00195331
0.0120756
-0.0182503
-0.251286
0.257461
0.0248654
-0.0302118
-0.416992
0.422339
0.0351226
-0.0390069
-0.572555
0.57644
0.042926
-0.0468058
-0.701861
0.705741
0.0515604
-0.0561508
-0.828193
0.832784
0.0612785
-0.0658827
-0.975237
0.979841
0.0706882
-0.0746875
-1.14971
1.15371
0.0784496
-0.081119
-1.35527
1.35794
0.0829682
-0.083436
-1.59746
1.59793
0.082629
-0.0806694
-1.57419
1.57223
0.0782507
-0.0751943
-1.30136
1.2983
0.0722437
-0.0689972
-1.08326
1.08002
0.0660799
-0.0629543
-0.908164
0.905039
0.0598905
-0.0560873
-0.761301
0.757498
0.05157
-0.0451716
-0.611121
0.604723
0.0381495
-0.0297383
-0.428683
0.420271
0.0221173
-0.0144489
-0.24141
0.233742
0.00858851
-0.00376186
-0.0971293
0.0923026
0.00106198
-0.0128947
0.0118327
-0.0414383
0.0442289
-0.00279063
0.0167705
-0.0250377
-0.26389
0.272157
0.0337003
-0.0406774
-0.429182
0.436159
0.0471423
-0.0522807
-0.58225
0.587388
0.0575282
-0.0626347
-0.710639
0.715745
0.068555
-0.0740497
-0.837388
0.842882
0.0799911
-0.0851699
-0.98434
0.989519
0.0904102
-0.0946088
-1.1575
1.1617
0.0983517
-0.100775
-1.36024
1.36266
0.10208
-0.101795
-1.59784
1.59756
0.100082
-0.097097
-1.56963
1.56665
0.093749
-0.089732
-1.29461
1.29059
0.0859737
-0.0819292
-1.076
1.07196
0.078389
-0.074658
-0.901123
0.897392
0.0709813
-0.0663464
-0.752976
0.748341
0.0608312
-0.0531234
-0.598245
0.590537
0.0447492
-0.0347709
-0.411884
0.401906
0.0257331
-0.0166721
-0.225895
0.216834
0.00981456
-0.00424727
-0.0873326
0.0817653
0.00118239
-0.010784
0.00960165
-0.0469425
0.0511697
-0.00422721
0.0241866
-0.0353529
-0.28071
0.291876
0.0467143
-0.0558565
-0.445636
0.454778
0.0641414
-0.0707235
-0.595027
0.601609
0.077572
-0.0841151
-0.721837
0.72838
0.0912692
-0.0976089
-0.848332
0.854672
0.104225
-0.109795
-0.994495
1.00007
0.115213
-0.119342
-1.16553
1.16966
0.122744
-0.124611
-1.36454
1.3664
0.125028
-0.123685
-1.59654
1.5952
0.120804
-0.116559
-1.5629
1.55865
0.112112
-0.106946
-1.28584
1.28067
0.102225
-0.0972588
-1.06704
1.06207
0.0930106
-0.0885704
-0.892565
0.888125
0.084212
-0.0785375
-0.742783
0.737108
0.0717588
-0.0623605
-0.582595
0.573197
0.0522841
-0.0403811
-0.391922
0.380019
0.0296273
-0.0189477
-0.20767
0.19699
0.0109974
-0.00468014
-0.0761293
0.069812
0.00127768
-0.00845454
0.00717686
-0.0551143
0.0623993
-0.00728498
0.0375359
-0.053045
-0.30389
0.319399
0.0682096
-0.0801722
-0.467793
0.479756
0.0903248
-0.0982648
-0.611251
0.619191
0.106635
-0.114358
-0.73558
0.743303
0.122376
-0.12915
-0.860762
0.867536
0.13593
-0.141393
-1.00521
1.01067
0.146428
-0.149948
-1.17315
1.17667
0.152425
-0.153186
-1.36745
1.36821
0.152181
-0.149348
-1.59289
1.59005
0.144966
-0.139232
-1.55352
1.54779
0.133534
-0.127129
-1.27474
1.26833
0.121355
-0.115334
-1.05609
1.05007
0.110221
-0.104853
-0.882181
0.876813
0.0995967
-0.0924525
-0.730134
0.72299
0.0840378
-0.0725904
-0.563316
0.551869
0.060455
-0.0462779
-0.368035
0.353858
0.0335946
-0.0211895
-0.186435
0.17403
0.0121011
-0.00504464
-0.0636312
0.0565748
0.00133613
-0.00597112
0.00463499
-0.0692443
0.0732654
-0.00402107
0.0284987
-0.0418905
-0.337469
0.350861
0.0553264
-0.0660901
-0.496872
0.507635
0.0756906
-0.0848274
-0.630544
0.639681
0.0951922
-0.104369
-0.750707
0.759884
0.114556
-0.123625
-0.873477
0.882546
0.133213
-0.14163
-1.01522
1.02363
0.15022
-0.157319
-1.1791
1.1862
0.163943
-0.168674
-1.36776
1.37249
0.171974
-0.172824
-1.58592
1.58677
0.171137
-0.167419
-1.5409
1.53718
0.162698
-0.156615
-1.26107
1.25499
0.150806
-0.143857
-1.04303
1.03608
0.137703
-0.13084
-0.869564
0.862701
0.123959
-0.114447
-0.71421
0.704698
0.102488
-0.0865313
-0.539548
0.523591
0.0701101
-0.0514077
-0.339296
0.320593
0.0357063
-0.0213559
-0.162067
0.147716
0.0115444
-0.00452903
-0.0502014
0.043186
0.00109869
-0.00345847
0.00235978
-0.0803518
0.0784057
0.00194609
0.00674054
-0.0154383
-0.367127
0.375824
0.0256178
-0.0333003
-0.523119
0.530802
0.0411003
-0.0490632
-0.651165
0.659128
0.0586126
-0.0673323
-0.768819
0.777539
0.0765708
-0.0850236
-0.891132
0.899585
0.0939404
-0.101426
-1.0318
1.03928
0.109218
-0.115263
-1.19309
1.19914
0.120782
-0.124336
-1.37682
1.38037
0.126015
-0.125353
-1.58652
1.58586
0.122089
-0.116705
-1.53222
1.52684
0.110321
-0.102522
-1.24796
1.24016
0.0952252
-0.0871586
-1.02815
1.02008
0.0798876
-0.0719484
-0.853057
0.845118
0.0645579
-0.0559344
-0.691077
0.682454
0.046581
-0.0351519
-0.505336
0.493907
0.0248102
-0.015289
-0.301461
0.29194
0.00898329
-0.00442506
-0.134035
0.129477
0.0019548
-0.000609459
-0.0367128
0.0353674
0.000119324
-0.00124078
0.00112146
-0.0815783
0.0786618
0.00291646
-0.00226178
-0.00263842
-0.387046
0.391946
0.00949284
-0.0152911
-0.542578
0.548376
0.0214232
-0.0283686
-0.668971
0.675917
0.0367052
-0.0443515
-0.785479
0.793125
0.052708
-0.0601906
-0.907373
0.914855
0.0678231
-0.0745651
-1.04661
1.05336
0.0813551
-0.086696
-1.20474
1.21008
0.091114
-0.0937109
-1.38322
1.38581
0.0947604
-0.0934702
-1.58445
1.58316
0.0897635
-0.0841064
-1.52081
1.51516
0.077661
-0.0700351
-1.2322
1.22457
0.062472
-0.0542192
-1.01141
1.00315
0.0464971
-0.037704
-0.835792
0.826999
0.0296114
-0.0207972
-0.669526
0.660712
0.0128162
-0.00443518
-0.480142
0.471761
-0.000949526
0.00388068
-0.281312
0.278381
-0.00455477
0.00390487
-0.123689
0.124339
-0.00271189
0.00132394
-0.0335297
0.0349177
-0.000391628
-0.000855889
0.00124752
-0.0802203
0.0774623
0.00275799
-0.00575015
0.0034963
-0.400185
0.402439
0.000789498
-0.00531057
-0.557309
0.56183
0.010682
-0.0166075
-0.683851
0.689776
0.0238555
-0.0305581
-0.800295
0.806997
0.0378418
-0.0443494
-0.921876
0.928384
0.0513365
-0.0571037
-1.05968
1.06545
0.0631074
-0.0674128
-1.21503
1.21934
0.0713123
-0.0736072
-1.38827
1.39056
0.0744048
-0.0729937
-1.58166
1.58025
0.0698391
-0.0649815
-1.50937
1.50451
0.0592849
-0.0520266
-1.21706
1.2098
0.0448791
-0.036586
-0.994397
0.986104
0.0281609
-0.0185765
-0.816563
0.806979
0.0094527
-0.000434081
-0.647951
0.638933
-0.00623691
0.0113569
-0.461701
0.456581
-0.0132125
0.0125104
-0.27263
0.273333
-0.0105473
0.00759458
-0.123469
0.126422
-0.00491565
0.00228628
-0.0355191
0.0381485
-0.000672646
-0.00141747
0.00209012
-0.0786562
0.0762312
0.00242497
-0.00680066
0.00612139
-0.408867
0.409547
-0.00296232
-0.000266111
-0.569358
0.572586
0.00478282
-0.0102503
-0.69652
0.701988
0.0164349
-0.0224209
-0.813106
0.819092
0.0288154
-0.03452
-0.934489
0.940194
0.0405633
-0.045758
-1.0711
1.0763
0.0509391
-0.0550416
-1.22356
1.22766
0.0586026
-0.0607758
-1.39265
1.39482
0.0616835
-0.0606023
-1.57897
1.57788
0.0579457
-0.0534917
-1.49935
1.49489
0.0482979
-0.0416065
-1.20271
1.19602
0.0346725
-0.0262224
-0.977261
0.968811
0.0178064
-0.00818538
-0.796139
0.786518
-0.000368596
0.00828443
-0.627515
0.619599
-0.0135758
0.0169443
-0.448978
0.445609
-0.0175182
0.0154868
-0.270277
0.272308
-0.0124687
0.00888055
-0.127683
0.131271
-0.00567616
0.00260581
-0.0399363
0.0430067
-0.000779945
-0.00253103
0.00331098
-0.0772294
0.075157
0.00207242
-0.00664506
0.00647246
-0.414708
0.414881
-0.00468351
0.00198415
-0.578602
0.581302
0.00230937
-0.00700871
-0.707409
0.712108
0.0123895
-0.017642
-0.82435
0.829602
0.0233664
-0.0284939
-0.945581
0.950709
0.0340696
-0.0386976
-1.08124
1.08587
0.0434898
-0.0473541
-1.23156
1.23542
0.0507374
-0.052881
-1.39688
1.39903
0.0538809
-0.0533595
-1.57691
1.57639
0.0509188
-0.0468605
-1.49015
1.48609
0.0418433
-0.0353176
-1.18915
1.18262
0.028782
-0.0205141
-0.960092
0.951824
0.0125245
-0.00383502
-0.776446
0.767757
-0.00362274
0.0103082
-0.610077
0.603391
-0.0144155
0.0169856
-0.439782
0.437212
-0.0170372
0.0149746
-0.270584
0.272647
-0.0121289
0.00857794
-0.133125
0.136676
-0.00542606
0.00250699
-0.0449371
0.0478562
-0.000754288
-0.00376225
0.00451654
-0.0761517
0.0745379
0.00161387
-0.00573324
0.00589514
-0.41892
0.418758
-0.00451783
0.00252131
-0.58667
0.588667
0.00144364
-0.00567767
-0.716882
0.721116
0.0107737
-0.0153143
-0.834479
0.83902
0.0203605
-0.0249335
-0.955824
0.960397
0.0302748
-0.0345691
-1.09057
1.09486
0.0389719
-0.0427883
-1.23918
1.243
0.0465037
-0.0486767
-1.4013
1.40347
0.0499041
-0.0494328
-1.57556
1.57509
0.0474125
-0.0432521
-1.48181
1.47765
0.038554
-0.0324376
-1.17589
1.16978
0.0261486
-0.0187187
-0.943601
0.936171
0.0115329
-0.00378382
-0.758731
0.750982
-0.00238167
0.00809005
-0.595338
0.589629
-0.011713
0.0136181
-0.432531
0.430626
-0.0138012
0.0123629
-0.271517
0.272956
-0.0100071
0.00704658
-0.138254
0.141215
-0.00445362
0.00208208
-0.0494616
0.0518332
-0.000645991
-0.00487984
0.00552583
-0.075584
0.0743197
0.00126429
-0.00461485
0.0048988
-0.422157
0.421873
-0.00371184
0.00186358
-0.593581
0.595429
0.00183704
-0.00556224
-0.725347
0.729072
0.00989779
-0.0142447
-0.843496
0.847843
0.0189006
-0.0236181
-0.964798
0.969516
0.0282888
-0.0324732
-1.09929
1.10347
0.0371056
-0.0407898
-1.24677
1.25045
0.0441542
-0.0468172
-1.40562
1.40829
0.0482582
-0.0480317
-1.57467
1.57445
0.0460809
-0.0423729
-1.47361
1.4699
0.0379421
-0.0322162
-1.16334
1.15761
0.0265305
-0.0198809
-0.928734
0.922085
0.0136516
-0.0072128
-0.743382
0.736943
0.00173919
0.00305091
-0.582931
0.578141
-0.00611168
0.00805265
-0.426248
0.424307
-0.00858806
0.00775493
-0.271713
0.272546
-0.00631875
0.00442342
-0.141922
0.143817
-0.00281485
0.00133645
-0.0527853
0.0542637
-0.000434508
-0.00573935
0.00617386
-0.0755509
0.0745066
0.0010443
-0.00327566
0.00330005
-0.42501
0.424985
-0.00230098
0.000521283
-0.599822
0.601602
0.00282696
-0.00633914
-0.733092
0.736604
0.010424
-0.0143201
-0.851951
0.855847
0.0190663
-0.0230176
-0.973684
0.977635
0.0277011
-0.031768
-1.10785
1.11192
0.0363657
-0.0403106
-1.25417
1.25812
0.0440112
-0.0464776
-1.41074
1.41321
0.048219
-0.0483031
-1.57412
1.5742
0.0468701
-0.043377
-1.46602
1.46252
0.0393609
-0.0341213
-1.15199
1.14675
0.029025
-0.0230609
-0.915351
0.909387
0.0177036
-0.0120011
-0.730363
0.724661
0.00722573
-0.00280379
-0.572471
0.568049
-0.000312989
0.00221244
-0.42012
0.418221
-0.00308177
0.00304434
-0.27069
0.270727
-0.00265416
0.00185907
-0.143569
0.144364
-0.00117835
0.00060124
-0.0543632
0.0549403
-0.000211736
-0.00618999
0.00640173
-0.0758143
0.0751003
0.000714003
-0.00204838
0.00162712
-0.428003
0.428424
-0.000809658
-0.00112225
-0.60518
0.607112
0.00406402
-0.00738215
-0.74015
0.743468
0.0112222
-0.0151939
-0.859577
0.863548
0.0193116
-0.0234321
-0.981807
0.985928
0.0281161
-0.0320237
-1.11644
1.12035
0.0367604
-0.0406955
-1.2619
1.26584
0.0444687
-0.0474371
-1.41609
1.41906
0.0495996
-0.0498815
-1.57429
1.57457
0.0486131
-0.0457739
-1.45916
1.45632
0.0423051
-0.037522
-1.14141
1.13662
0.0328457
-0.027684
-0.903439
0.898277
0.022567
-0.017606
-0.718747
0.713786
0.0132798
-0.00904972
-0.563116
0.558886
0.00604793
-0.00360346
-0.413998
0.411553
0.00224293
-0.00138635
-0.268352
0.267495
0.000904177
-0.000502207
-0.14313
0.142728
0.000159482
5.80869e-05
-0.0543225
0.054105
-8.07978e-05
-0.00622172
0.00630252
-0.0765174
0.0759655
0.000551911
-0.00100489
0.00065136
-0.431275
0.431629
0.000778198
-0.00260096
-0.61059
0.612412
0.00563556
-0.00877176
-0.746579
0.749715
0.0123993
-0.0159395
-0.867172
0.870713
0.0201696
-0.0239926
-0.990069
0.993892
0.0286548
-0.0330198
-1.12473
1.1291
0.037427
-0.0416958
-1.26984
1.27411
0.0458702
-0.048894
-1.42193
1.42495
0.051363
-0.0523528
-1.57505
1.57603
0.0514738
-0.0492351
-1.45334
1.4511
0.0460005
-0.0417547
-1.13189
1.12764
0.0376076
-0.0327953
-0.892775
0.887963
0.0282418
-0.0236066
-0.708348
0.703713
0.0195548
-0.0153893
-0.554078
0.549912
0.012181
-0.00939398
-0.407454
0.404668
0.00724993
-0.00547532
-0.264384
0.262609
0.0039779
-0.00246867
-0.140579
0.139069
0.00129725
-0.000414758
-0.0527481
0.0518656
4.46786e-05
-0.00590967
0.00586499
-0.0775072
0.0771439
0.000363321
8.97877e-05
-0.000723063
-0.434732
0.435365
0.00208765
-0.00419478
-0.615609
0.617716
0.00711657
-0.0100642
-0.75267
0.755618
0.0137325
-0.0170986
-0.874217
0.877583
0.0211696
-0.0251233
-0.998202
1.00216
0.029707
-0.0340506
-1.13334
1.13768
0.0386802
-0.0429641
-1.27831
1.2826
0.0472921
-0.051011
-1.42826
1.43198
0.0538615
-0.0550928
-1.57694
1.57817
0.0548648
-0.0529409
-1.44874
1.44682
0.0502815
-0.0466147
-1.12334
1.11967
0.042614
-0.0381392
-0.882902
0.878428
0.0338799
-0.0293358
-0.698695
0.694151
0.0254798
-0.0212482
-0.545445
0.541214
0.0178647
-0.0144733
-0.400322
0.396931
0.0117593
-0.00906848
-0.258702
0.256011
0.00658007
-0.00415605
-0.135999
0.133575
0.0023017
-0.000863347
-0.0499405
0.0485022
0.000168517
-0.00536819
0.00519967
-0.0787374
0.0785121