/*--------------------------------*- C++ -*----------------------------------*\
  =========                 |
  \\      /  F ield         | OpenFOAM: The Open Source CFD Toolbox
   \\    /   O peration     | Website:  https://openfoam.org
    \\  /    A nd           | Version:  9
     \\/     M anipulation  |
\*---------------------------------------------------------------------------*/
FoamFile
{
    format      ascii;
    class       surfaceScalarField;
    location    "65";
    object      phi;
}
// * * * * * * * * * * * * * * * * * * * * * * * * * * * * * * * * * * * * * //

dimensions      [0 3 -1 0 0 0 0];

internalField   nonuniform List<scalar> 
17370
(
-0.0916062
0.0960093
0.284608
-0.0775945
0.0594198
0.36495
-0.0430419
0.031622
0.427588
-0.0223181
0.0162657
0.505304
-0.011673
0.00879969
0.602275
-0.00658917
0.00510468
0.720542
-0.00386803
0.00298777
0.863787
-0.00221466
0.00163611
1.03603
-0.00110404
0.000682397
1.24292
-0.000270218
-0.000124416
1.49159
0.000513616
-0.000928654
1.49161
0.00133431
-0.00183949
1.2432
0.00238923
-0.0031304
1.03638
0.00398581
-0.00520308
0.864124
0.00667633
-0.00887752
0.721259
0.0117407
-0.0163183
0.603792
0.0223549
-0.0316412
0.508726
0.0430419
-0.0594084
0.432535
0.0775874
-0.0960028
0.365191
0.0916212
0.19739
-0.127092
0.0880245
0.0390678
-0.364357
0.354032
-0.0714736
0.0817988
-0.446654
0.454257
-0.0791679
0.0715654
-0.521012
0.529112
-0.0637111
0.0556108
-0.612992
0.620762
-0.0482228
0.0404526
-0.727165
0.733686
-0.0338401
0.0273186
-0.867582
0.872435
-0.0221137
0.0172599
-1.03857
1.04191
-0.0135599
0.0102185
-1.24472
1.24713
-0.00766561
0.00525708
-1.49284
1.49486
-0.00329026
0.00127289
-1.49269
1.49452
0.000549162
-0.00237149
-1.2441
1.24602
0.00434711
-0.0062604
-1.03761
1.04008
0.00859665
-0.0110745
-0.866186
0.86981
0.0143295
-0.0179541
-0.724593
0.729744
0.0227367
-0.0278881
-0.609063
0.615631
0.0343591
-0.0409269
-0.515122
0.522456
0.0486451
-0.0559792
-0.43988
0.447655
0.063999
-0.0717745
-0.374705
0.377355
0.0792652
-0.0819151
-0.256894
0.224431
0.0715646
-0.0391014
-0.0688143
0.0592041
0.00961015
-0.0520982
0.0589217
-0.374841
0.368017
-0.0580719
0.054228
-0.453949
0.457793
-0.0487398
0.0441791
-0.527622
0.532182
-0.0396276
0.0357301
-0.620806
0.624704
-0.0315147
0.0275166
-0.734665
0.738663
-0.0231557
0.0192644
-0.873961
0.877853
-0.0152145
0.0117531
-1.04337
1.04683
-0.00822863
0.00519158
-1.24866
1.25169
-0.00197949
-0.00100532
-1.49695
1.49993
0.00396776
-0.00711845
-1.49742
1.50057
0.0100651
-0.0134659
-1.25006
1.25346
0.0168
-0.0207027
-1.04564
1.04955
0.0244638
-0.0286958
-0.877129
0.881361
0.0325902
-0.0367037
-0.738974
0.743088
0.0405173
-0.0449862
-0.625962
0.630431
0.0494779
-0.0548987
-0.535009
0.54043
0.058664
-0.059421
-0.458069
0.458826
0.052468
-0.0320727
-0.336753
0.316357
0.009676
-0.0686552
0.0589792
-0.053417
0.0493077
0.0041093
-0.0332285
0.0436454
-0.358576
0.348159
-0.0473158
0.0467252
-0.459589
0.46018
-0.0437934
0.0405781
-0.536143
0.539358
-0.0368979
0.03354
-0.628408
0.631766
-0.0299021
0.0266564
-0.742048
0.745294
-0.0231976
0.0199942
-0.881352
0.884555
-0.0163944
0.0130364
-1.05026
1.05362
-0.00933054
0.00592007
-1.25496
1.25837
-0.00212368
-0.00149662
-1.50329
1.50691
0.00508476
-0.00878807
-1.50406
1.50776
0.0120716
-0.0156031
-1.25702
1.26055
0.0187811
-0.0221717
-1.05325
1.05664
0.0251893
-0.0284635
-0.884964
0.888238
0.0315602
-0.0350515
-0.746765
0.750256
0.0382855
-0.0418369
-0.634546
0.638097
0.0449406
-0.0477472
-0.544568
0.547375
0.048208
-0.0443573
-0.456935
0.453084
0.033719
-0.0163916
-0.297029
0.279702
0.00418228
-0.053126
0.0489437
-0.0461408
0.0435881
0.00255271
-0.0230273
0.0333664
-0.337576
0.327237
-0.0390907
0.0400331
-0.459936
0.458993
-0.038776
0.0364433
-0.542019
0.544352
-0.0337959
0.0312444
-0.634739
0.637291
-0.0282609
0.0254063
-0.748385
0.75124
-0.0221606
0.0191391
-0.887618
0.890639
-0.0157795
0.0126375
-1.0568
1.05994
-0.00907201
0.00566466
-1.26177
1.26518
-0.00174763
-0.00205388
-1.51064
1.51444
0.00581374
-0.00960484
-1.51154
1.51533
0.0128434
-0.016179
-1.264
1.26733
0.0190839
-0.0221695
-1.05984
1.06293
0.0249455
-0.0279431
-0.891426
0.894423
0.030594
-0.0333754
-0.753427
0.756209
0.0357576
-0.0382333
-0.641043
0.643518
0.0404189
-0.0414827
-0.549201
0.550265
0.0403388
-0.0343203
-0.447947
0.441928
0.0236578
-0.0103909
-0.264497
0.251231
0.00264329
-0.0456952
0.0430519
-0.041473
0.0396762
0.0017968
-0.0169191
0.0261899
-0.317381
0.30811
-0.0327714
0.034881
-0.457441
0.455332
-0.0344369
0.0327303
-0.546388
0.548095
-0.0304938
0.0283571
-0.63961
0.641747
-0.025909
0.0235204
-0.753849
0.756238
-0.020694
0.0179367
-0.893506
0.896263
-0.0147406
0.0116952
-1.063
1.06604
-0.00821908
0.00489435
-1.2685
1.27183
-0.00104682
-0.00270494
-1.51821
1.52196
0.00640303
-0.0100917
-1.51907
1.52276
0.0132023
-0.0163874
-1.2706
1.27378
0.0191318
-0.021977
-1.06595
1.06879
0.0244164
-0.0269206
-0.897197
0.899701
0.0290459
-0.0312347
-0.758638
0.760827
0.0331555
-0.0351706
-0.645735
0.64775
0.0366631
-0.0368431
-0.550834
0.551014
0.0344237
-0.0274113
-0.435318
0.428306
0.0177067
-0.00749509
-0.239633
0.229422
0.00190769
-0.0408368
0.0389291
-0.0381303
0.036783
0.00134735
-0.0129148
0.0208951
-0.299487
0.291507
-0.0276428
0.0305496
-0.45279
0.449883
-0.0307431
0.0296071
-0.549542
0.550678
-0.0275962
0.0256577
-0.643814
0.645753
-0.0234317
0.021277
-0.758492
0.760647
-0.018754
0.0162719
-0.898825
0.901307
-0.0133369
0.0104682
-1.06895
1.07182
-0.00712497
0.00389744
-1.27507
1.2783
-0.000154625
-0.00348123
-1.52563
1.52927
0.00705065
-0.0105938
-1.52636
1.52991
0.0135535
-0.0165324
-1.27688
1.27986
0.0190235
-0.0215172
-1.07151
1.074
0.0236013
-0.0257204
-0.902001
0.90412
0.0275425
-0.0294386
-0.762855
0.764751
0.0311039
-0.0328489
-0.649606
0.651351
0.0336721
-0.0331103
-0.550826
0.550264
0.0297608
-0.022423
-0.421073
0.413735
0.0138854
-0.00579818
-0.220373
0.212286
0.0014825
-0.0372611
0.0357786
-0.0356067
0.0345705
0.00103618
-0.0100845
0.016836
-0.284164
0.277413
-0.0233292
0.0266949
-0.446726
0.44336
-0.0274625
0.0267569
-0.55159
0.552295
-0.0249775
0.0231811
-0.647657
0.649454
-0.0211032
0.0190824
-0.762734
0.764755
-0.016705
0.0143722
-0.903652
0.905985
-0.0116284
0.00893837
-1.07453
1.07722
-0.00577424
0.0026874
-1.28142
1.2845
0.000914264
-0.004414
-1.53281
1.53631
0.00783062
-0.0111859
-1.53334
1.5367
0.0139406
-0.0166541
-1.28272
1.28543
0.0188793
-0.0210789
-1.07639
1.07859
0.0229191
-0.0247954
-0.906129
0.908006
0.0264039
-0.0280728
-0.766523
0.768192
0.0295308
-0.0309441
-0.652948
0.654361
0.03126
-0.0299697
-0.549353
0.548063
0.0259944
-0.0187248
-0.406406
0.399137
0.0112737
-0.00467549
-0.205014
0.198416
0.00120055
-0.0344536
0.0332531
-0.0336607
0.0328548
0.000805893
-0.00798605
0.0136606
-0.271228
0.265553
-0.0196734
0.0232408
-0.439881
0.436314
-0.0244882
0.0240296
-0.552907
0.553365
-0.0225218
0.0208347
-0.651243
0.65293
-0.0188532
0.016922
-0.766728
0.76866
-0.0146456
0.012408
-0.908208
0.910445
-0.00977213
0.00719547
-1.07978
1.08236
-0.00417687
0.00123036
-1.28747
1.29042
0.00220705
-0.0055419
-1.5397
1.54304
0.00877611
-0.0119123
-1.53993
1.54306
0.0144512
-0.0169217
-1.28803
1.2905
0.0189311
-0.0208998
-1.08073
1.0827
0.0225317
-0.0241912
-0.909792
0.911452
0.025615
-0.0270927
-0.769756
0.771234
0.0283575
-0.0293913
-0.655565
0.656599
0.0293351
-0.027374
-0.546442
0.544481
0.0229919
-0.0159831
-0.391993
0.384984
0.00943979
-0.00389997
-0.192397
0.186858
0.00100577
-0.0321626
0.0311568
-0.0321466
0.0315186
0.000628016
-0.0063692
0.0111228
-0.260366
0.255612
-0.0165471
0.0201184
-0.432741
0.42917
-0.0216919
0.0214593
-0.553744
0.553976
-0.0201848
0.0185601
-0.654632
0.656257
-0.0166353
0.0147541
-0.770562
0.772443
-0.0125377
0.010361
-0.912581
0.914757
-0.00779871
0.00529706
-1.08482
1.08733
-0.00237421
-0.000456884
-1.29325
1.29608
0.00374806
-0.00691535
-1.54625
1.54942
0.00995787
-0.012877
-1.54607
1.54899
0.0152179
-0.0174732
-1.29287
1.29512
0.0192839
-0.0210326
-1.08464
1.08638
0.0224695
-0.0239319
-0.913034
0.914496
0.0251918
-0.0264971
-0.772617
0.773922
0.0276158
-0.0282316
-0.657415
0.658031
0.0278048
-0.0252798
-0.542254
0.539729
0.0206479
-0.0139679
-0.37815
0.37147
0.00814268
-0.00335929
-0.181735
0.176952
0.000870748
-0.0302292
0.0293585
-0.03097
0.0304858
0.000484135
-0.0050691
0.00902838
-0.251281
0.247321
-0.0138185
0.017244
-0.425677
0.422251
-0.0190031
0.0189616
-0.554151
0.554193
-0.0178847
0.016295
-0.657927
0.659517
-0.0143942
0.0125296
-0.77431
0.776174
-0.0103333
0.00818174
-0.916839
0.91899
-0.00565807
0.00320468
-1.08972
1.09217
-0.000352641
-0.00240235
-1.29881
1.30157
0.00557102
-0.00858904
-1.55247
1.55549
0.0114563
-0.0141757
-1.55178
1.5545
0.0163297
-0.0183766
-1.29728
1.29933
0.019994
-0.0215288
-1.08812
1.08965
0.0227795
-0.0240595
-0.915889
0.917169
0.0251703
-0.0263165
-0.775137
0.776284
0.0272451
-0.0274805
-0.658449
0.658685
0.0266573
-0.0236537
-0.53698
0.533977
0.0188705
-0.012512
-0.36497
0.358611
0.0072339
-0.00298728
-0.17247
0.168223
0.000779405
-0.0285433
0.0277639
-0.030069
0.0297064
0.000362556
-0.00398076
0.00724229
-0.243733
0.240471
-0.0113858
0.0145552
-0.418965
0.415795
-0.0163736
0.0164862
-0.554202
0.55409
-0.0154945
0.0139783
-0.661144
0.66266
-0.0120745
0.0101941
-0.778035
0.779916
-0.0079797
0.00581795
-0.921052
0.923214
-0.00329607
0.00085813
-1.09452
1.09696
0.00196052
-0.00465855
-1.30422
1.30692
0.00773444
-0.0106281
-1.5584
1.5613
0.0133393
-0.0158703
-1.55709
1.55962
0.0178415
-0.0196824
-1.30127
1.30311
0.0211095
-0.0224346
-1.0912
1.09252
0.023505
-0.0246107
-0.918384
0.919489
0.025578
-0.0265561
-0.777335
0.778313
0.0272267
-0.0271716
-0.658792
0.658737
0.0259117
-0.0224836
-0.530775
0.527347
0.017594
-0.0115029
-0.352413
0.346322
0.00662173
-0.00274335
-0.16419
0.160312
0.000721565
-0.0270232
0.0263016
-0.0294037
0.0291495
0.000254214
-0.00302761
0.00565966
-0.237544
0.234912
-0.00915676
0.0119868
-0.412812
0.409982
-0.0137503
0.0139453
-0.553986
0.553791
-0.0129962
0.0115246
-0.664236
0.665707
-0.00959462
0.0076693
-0.781801
0.783726
-0.00540209
0.00319714
-0.925289
0.927494
-0.000640136
-0.00181968
-1.0993
1.10176
0.00463953
-0.00731291
-1.30953
1.31221
0.0103244
-0.013116
-1.56409
1.56688
0.0156869
-0.01804
-1.56203
1.56438
0.0198369
-0.0214805
-1.30485
1.30649
0.0227194
-0.0238293
-1.09388
1.09499
0.0247131
-0.0256417
-0.920531
0.92146
0.0264658
-0.0272715
-0.779188
0.779993
0.0276519
-0.0273164
-0.658538
0.658202
0.0256076
-0.0217679
-0.523733
0.519893
0.0167722
-0.0108652
-0.340358
0.334451
0.00624702
-0.00260116
-0.15658
0.152934
0.000690437
-0.0256061
0.0249157
-0.0289517
0.0288003
0.000151425
-0.0021458
0.00418734
-0.232593
0.230552
-0.00703339
0.00945407
-0.407376
0.404955
-0.011055
0.0112542
-0.553653
0.553454
-0.0103153
0.00885124
-0.667274
0.668738
-0.00686944
0.00487026
-0.785661
0.78766
-0.00251474
0.000234176
-0.929614
0.931894
0.00240295
-0.0049178
-1.10414
1.10665
0.00777629
-0.0104564
-1.3148
1.31748
0.0134345
-0.0161466
-1.56958
1.57229
0.0185916
-0.0207731
-1.56661
1.56879
0.0223956
-0.02384
-1.30802
1.30946
0.0248872
-0.0257706
-1.09617
1.09705
0.0264543
-0.0271903
-0.922311
0.923048
0.0278618
-0.0285222
-0.780681
0.781342
0.0285884
-0.0278765
-0.657651
0.656939
0.0257198
-0.0214742
-0.515894
0.511649
0.0163492
-0.0105342
-0.328634
0.322819
0.00606297
-0.00253984
-0.14938
0.145857
0.000680456
-0.0242413
0.0235608
-0.0287047
0.0286572
4.74845e-05
-0.00128657
0.0027526
-0.228813
0.227347
-0.00493387
0.00688165
-0.402792
0.400844
-0.00821587
0.00833623
-0.553365
0.553244
-0.0073602
0.00586626
-0.670336
0.67183
-0.00379355
0.00168698
-0.789673
0.79178
0.000796317
-0.00319505
-0.934094
0.936493
0.00594731
-0.00855422
-1.10909
1.11169
0.0114905
-0.0142111
-1.32009
1.32281
0.0171863
-0.0198396
-1.57492
1.57757
0.0221714
-0.0241865
-1.57084
1.57286
0.025633
-0.0268699
-1.31078
1.31201
0.027714
-0.0283634
-1.09803
1.09868
0.0288384
-0.0293685
-0.923706
0.924236
0.0298756
-0.0303295
-0.781812
0.782266
0.0301051
-0.0289471
-0.655996
0.654838
0.0263025
-0.0216188
-0.507254
0.50257
0.0163093
-0.0104798
-0.31705
0.31122
0.0060463
-0.00254914
-0.14238
0.138883
0.000689065
-0.0228882
0.0221991
-0.0286655
0.0287284
-6.2817e-05
-0.000403581
0.00128977
-0.226183
0.225297
-0.00277926
0.00418962
-0.399187
0.397776
-0.00515469
0.00511147
-0.553293
0.553336
-0.00404157
0.00246478
-0.673511
0.675088
-0.000267959
-0.00198519
-0.793905
0.796158
0.00464305
-0.00719852
-0.938809
0.941364
0.0101149
-0.0128567
-1.11423
1.11697
0.0159142
-0.0187099
-1.32547
1.32826
0.0217138
-0.024329
-1.58014
1.58276
0.0265581
-0.0284078
-1.57474
1.57659
0.029673
-0.0306931
-1.3131
1.31412
0.0313244
-0.0317296
-1.09944
1.09985
0.0319864
-0.0322947
-0.924683
0.924991
0.0326126
-0.0327875
-0.782418
0.782593
0.032276
-0.0305655
-0.653461
0.65175
0.0273913
-0.0222188
-0.497742
0.492569
0.0166474
-0.0106863
-0.305387
0.299426
0.00618399
-0.00262291
-0.13539
0.131829
0.00071455
-0.0215103
0.0207957
-0.0288473
0.0290252
-0.000177879
0.000519206
-0.000246883
-0.224728
0.224456
-0.000500144
0.00129441
-0.396686
0.395892
-0.00177922
0.00148871
-0.553615
0.553905
-0.000268579
-0.00146259
-0.67691
0.678642
0.00384197
-0.00628946
-0.798439
0.800886
0.00917285
-0.0119343
-0.94384
0.946601
0.0150678
-0.0179902
-1.11964
1.12257
0.0212149
-0.024122
-1.331
1.33391
0.0271851
-0.0297788
-1.58529
1.58788
0.0319079
-0.0335845
-1.57829
1.57997
0.034661
-0.0354472
-1.31497
1.31575
0.0358538
-0.0360021
-1.10037
1.10052
0.0360252
-0.0360946
-0.925201
0.925271
0.0362139
-0.0360248
-0.782391
0.782201
0.0351307
-0.0328093
-0.649866
0.647545
0.0290342
-0.0232891
-0.487236
0.481491
0.0173567
-0.0111379
-0.293407
0.287188
0.00646266
-0.00275407
-0.128232
0.124523
0.000754601
-0.020075
0.0193204
-0.0292848
0.0296076
-0.000322811
0.00153338
-0.00190425
-0.224531
0.224902
0.00200619
-0.00193873
-0.395418
0.39535
0.0020667
-0.00271701
-0.554549
0.555199
0.00416977
-0.00609656
-0.680676
0.682602
0.00871389
-0.0114092
-0.80336
0.806056
0.0145786
-0.0176006
-0.949287
0.952309
0.0210091
-0.024162
-1.12543
1.12858
0.0276028
-0.0306573
-1.33677
1.33982
0.0338066
-0.0363887
-1.5904
1.59298
0.0384131
-0.0398934
-1.58148
1.58296
0.040759
-0.0412994
-1.31632
1.31686
0.041466
-0.0413339
-1.10076
1.10062
0.0410984
-0.0409098
-0.925209
0.925021
0.0408225
-0.0401589
-0.781584
0.780921
0.0388057
-0.0357797
-0.645074
0.642048
0.0313044
-0.0248668
-0.475555
0.469117
0.0184482
-0.011832
-0.280851
0.274235
0.00687693
-0.00293913
-0.120741
0.116804
0.000808042
-0.0185539
0.0177458
-0.0300004
0.0305011
-0.000500667
0.00282232
-0.0039516
-0.225668
0.226797
0.0049218
-0.00565582
-0.395606
0.39634
0.00650207
-0.00761756
-0.556323
0.557438
0.00938999
-0.0115892
-0.684913
0.687112
0.014526
-0.0175393
-0.808783
0.811797
0.021069
-0.0244177
-0.95526
0.958609
0.0281699
-0.0316103
-1.13169
1.13513
0.035319
-0.0385568
-1.34283
1.34607
0.0418161
-0.044393
-1.59548
1.59805
0.0463032
-0.0475709
-1.58427
1.58554
0.0481813
-0.0484513
-1.31713
1.3174
0.0483493
-0.0479081
-1.10054
1.1001
0.0473912
-0.0469248
-0.924642
0.924175
0.0465175
-0.0454035
-0.779845
0.778731
0.0434436
-0.0395681
-0.638885
0.635009
0.0342546
-0.0269688
-0.462447
0.455161
0.0199176
-0.0127547
-0.267438
0.260275
0.0074135
-0.00317016
-0.112758
0.108514
0.000872002
-0.0169216
0.0160496
-0.0310695
0.0317927
-0.000723156
0.00432874
-0.00634969
-0.228336
0.230356
0.00838221
-0.0100292
-0.397457
0.399104
0.0117035
-0.0134009
-0.559195
0.560892
0.0156264
-0.0181958
-0.689784
0.692353
0.0215571
-0.0249728
-0.814851
0.818267
0.0289526
-0.0327049
-0.961898
0.96565
0.0368758
-0.0406602
-1.13853
1.14231
0.0446829
-0.0481277
-1.34926
1.35271
0.0515004
-0.0540526
-1.60052
1.60308
0.0558121
-0.0568217
-1.5866
1.58761
0.0571427
-0.0571023
-1.31732
1.31728
0.056704
-0.055922
-1.09966
1.09888
0.055097
-0.0543161
-0.923446
0.922665
0.0535034
-0.0518709
-0.777215
0.775582
0.0491629
-0.0442678
-0.631007
0.626112
0.0379412
-0.0296114
-0.447587
0.439257
0.0217566
-0.0138872
-0.252864
0.244995
0.00805482
-0.00343677
-0.104131
0.0995127
0.000942832
-0.0151585
0.0142156
-0.0325765
0.0335879
-0.00101144
0.00621256
-0.00929079
-0.232784
0.235862
0.0126011
-0.0153102
-0.401243
0.403952
0.0179574
-0.0203648
-0.563445
0.565853
0.0231891
-0.0262523
-0.6955
0.698563
0.0301725
-0.0341
-0.821736
0.825664
0.038635
-0.0428741
-0.969354
0.973593
0.0475398
-0.05172
-1.14606
1.15024
0.0560889
-0.0597439
-1.35609
1.35974
0.0632027
-0.065679
-1.60549
1.60797
0.0672235
-0.0679012
-1.58838
1.58906
0.0678688
-0.0674498
-1.31675
1.31633
0.0667288
-0.0655674
-1.09804
1.09687
0.0643932
-0.063302
-0.921557
0.920466
0.061965
-0.0597232
-0.773543
0.771301
0.0561032
-0.0499544
-0.621081
0.614932
0.0423855
-0.0327718
-0.430575
0.420961
0.0239221
-0.0151841
-0.236811
0.228073
0.00876568
-0.00372016
-0.0947308
0.0896852
0.00101432
-0.013254
0.0122396
-0.0346459
0.0360571
-0.0014112
0.00867976
-0.0131101
-0.239337
0.243767
0.0179159
-0.0218664
-0.407329
0.41128
0.0256558
-0.0289225
-0.569404
0.57267
0.032519
-0.0362329
-0.702329
0.706043
0.040872
-0.0454387
-0.829648
0.834215
0.0506442
-0.055456
-0.977796
0.982607
0.0606854
-0.0652942
-1.15438
1.15899
0.0700087
-0.0738411
-1.36331
1.36714
0.0773173
-0.079629
-1.61026
1.61257
0.0808586
-0.0811012
-1.58944
1.58968
0.0806438
-0.0797347
-1.31531
1.3144
0.0786283
-0.0770616
-1.09555
1.09398
0.0755393
-0.074036
-0.918941
0.917438
0.0721673
-0.0691199
-0.76861
0.765562
0.0643513
-0.0566483
-0.608625
0.600922
0.0475532
-0.0363743
-0.410926
0.399747
0.026326
-0.0165676
-0.218965
0.209206
0.00949075
-0.00399272
-0.0844656
0.0789676
0.00107783
-0.0112106
0.0101328
-0.0374799
0.0394528
-0.00197299
0.0121005
-0.0182592
-0.248512
0.254671
0.0248675
-0.0302711
-0.416215
0.421619
0.0354135
-0.0397349
-0.57746
0.581781
0.0443119
-0.0488759
-0.710606
0.715169
0.0544367
-0.0597893
-0.838835
0.844188
0.0657835
-0.0712351
-0.987392
0.992843
0.077052
-0.0820639
-1.16353
1.16854
0.0870463
-0.0909441
-1.37081
1.37471
0.0942782
-0.0962558
-1.6146
1.61657
0.0970046
-0.0966589
-1.58954
1.5892
0.0956742
-0.0941775
-1.31283
1.31133
0.0926084
-0.0906103
-1.09212
1.09012
0.0887108
-0.0866584
-0.915348
0.913296
0.0842719
-0.0801517
-0.761952
0.757831
0.0739355
-0.0642937
-0.593014
0.583372
0.0533258
-0.0402635
-0.388086
0.375023
0.0288137
-0.0179147
-0.199043
0.188144
0.0101485
-0.00421643
-0.0733071
0.067375
0.00112218
-0.00904959
0.00792741
-0.041397
0.044243
-0.002846
0.0170737
-0.0254921
-0.261054
0.269473
0.0343425
-0.0415035
-0.428566
0.435727
0.0482921
-0.0538824
-0.588104
0.593694
0.0597433
-0.0654305
-0.720748
0.726435
0.0721164
-0.0783685
-0.84957
0.855822
0.0852023
-0.0912714
-0.998244
1.00431
0.0975828
-0.102857
-1.1734
1.17868
0.107898
-0.111634
-1.37832
1.38206
0.114546
-0.115922
-1.61813
1.6195
0.115946
-0.114797
-1.58836
1.58721
0.11312
-0.110937
-1.30911
1.30692
0.108828
-0.106358
-1.08765
1.08518
0.104063
-0.101335
-0.910464
0.907735
0.0982742
-0.0927735
-0.75301
0.74751
0.0847323
-0.0726819
-0.573439
0.561389
0.0594381
-0.0441601
-0.361451
0.346173
0.031138
-0.0190462
-0.176858
0.164766
0.0106278
-0.00434258
-0.0613266
0.0550413
0.00113376
-0.00681513
0.00568136
-0.0469786
0.0513022
-0.00432353
0.0247788
-0.0362762
-0.278119
0.289616
0.0480446
-0.0575369
-0.445417
0.454909
0.0663534
-0.0734093
-0.601941
0.608997
0.080806
-0.0880043
-0.73313
0.740328
0.0958765
-0.102943
-0.862051
0.869118
0.110449
-0.116917
-1.01023
1.01669
0.123408
-0.128607
-1.18362
1.18882
0.133297
-0.136479
-1.3853
1.38848
0.138535
-0.138923
-1.62025
1.62064
0.137885
-0.135668
-1.58542
1.58321
0.133119
-0.130114
-1.30393
1.30092
0.127378
-0.124382
-1.08203
1.07903
0.121593
-0.118165
-0.904112
0.900683
0.11412
-0.106771
-0.741088
0.733739
0.0963786
-0.081357
-0.548891
0.533869
0.0654225
-0.04765
-0.33044
0.312667
0.0329692
-0.0197456
-0.152407
0.139184
0.010803
-0.00431915
-0.0487367
0.0422529
0.00109794
-0.00457772
0.00347978
-0.0553004
0.0627232
-0.00742273
0.038316
-0.0542971
-0.301865
0.317846
0.0701482
-0.0828631
-0.468413
0.481128
0.0938624
-0.102275
-0.619409
0.627822
0.111165
-0.119628
-0.74814
0.756603
0.128412
-0.135883
-0.875971
0.883442
0.143481
-0.149748
-1.02274
1.029
0.15574
-0.160219
-1.19338
1.19786
0.163879
-0.165884
-1.39085
1.39285
0.166497
-0.165433
-1.62012
1.61906
0.162973
-0.159388
-1.5802
1.57662
0.15574
-0.151725
-1.297
1.29298
0.148283
-0.144755
-1.07506
1.07153
0.141339
-0.137066
-0.896067
0.891794
0.131538
-0.121632
-0.725087
0.715181
0.108167
-0.089512
-0.518112
0.499458
0.070595
-0.0502512
-0.294625
0.274282
0.0340122
-0.0198853
-0.126
0.111873
0.0106293
-0.00414176
-0.0359266
0.0294391
0.0010139
-0.00243585
0.00142195
-0.069636
0.0737928
-0.00415675
0.0293503
-0.0431957
-0.33631
0.350155
0.0572388
-0.0688785
-0.499012
0.510652
0.0792913
-0.0889762
-0.640082
0.649767
0.0997726
-0.109659
-0.764659
0.774545
0.120647
-0.13045
-0.890041
0.899844
0.140898
-0.15019
-1.03433
1.04362
0.159876
-0.168158
-1.20124
1.20952
0.176351
-0.182844
-1.39369
1.40018
0.188554
-0.192189
-1.61678
1.62042
0.193724
-0.193748
-1.57203
1.57205
0.192664
-0.190892
-1.28796
1.28619
0.189435
-0.18758
-1.06655
1.0647
0.185593
-0.181381
-0.885687
0.881476
0.173648
-0.158757
-0.703427
0.688536
0.138336
-0.111177
-0.479788
0.452629
0.0851205
-0.0584309
-0.253958
0.227269
0.0383279
-0.0217181
-0.0984232
0.0818134
0.0112836
-0.00426687
-0.0234659
0.0164492
0.0010134
-0.000488993
-0.000524403
-0.0809923
0.0791457
0.00184661
0.00753496
-0.016665
-0.366817
0.375947
0.0273362
-0.0355845
-0.526986
0.535234
0.0439452
-0.0521488
-0.662017
0.670221
0.0620918
-0.0713463
-0.784109
0.793364
0.0811968
-0.090199
-0.90909
0.918092
0.0997562
-0.107912
-1.05261
1.06077
0.116594
-0.123643
-1.2176
1.22465
0.130544
-0.135708
-1.40635
1.41151
0.139657
-0.141711
-1.62322
1.62527
0.141676
-0.140123
-1.57135
1.5698
0.137466
-0.13399
-1.28362
1.28015
0.130859
-0.127458
-1.06041
1.05701
0.124012
-0.118633
-0.872707
0.867328
0.110304
-0.0968989
-0.669543
0.656138
0.0810081
-0.0618817
-0.423902
0.404776
0.0452835
-0.030008
-0.201167
0.185892
0.0193135
-0.0109049
-0.0663625
0.0579539
0.0057318
-0.00220685
-0.00981292
0.00628797
0.000475729
0.00160664
-0.00208237
-0.0824441
0.0795243
0.00291978
-0.00174161
-0.00355365
-0.387416
0.392711
0.0108378
-0.0167871
-0.547677
0.553626
0.0229637
-0.0301505
-0.680562
0.687749
0.0387424
-0.0467733
-0.801752
0.809783
0.055546
-0.0633933
-0.926342
0.93419
0.0714668
-0.0787054
-1.06873
1.07596
0.0861804
-0.0923094
-1.23123
1.23735
0.097816
-0.10167
-1.41595
1.4198
0.104473
-0.105233
-1.62654
1.6273
0.103922
-0.101094
-1.56756
1.56473
0.0974113
-0.0930205
-1.27627
1.27188
0.0886113
-0.0839579
-1.05151
1.04686
0.0793702
-0.0733232
-0.857646
0.851599
0.0656884
-0.0546162
-0.639575
0.628503
0.0431659
-0.0309056
-0.384079
0.371818
0.0217032
-0.0141493
-0.170369
0.162815
0.00925748
-0.00551861
-0.0497352
0.0459963
0.00308494
-0.00118099
-0.00292351
0.00101956
0.000271455
0.00275421
-0.00302566
-0.0811481
0.0783737
0.0027744
-0.00545067
0.00292357
-0.401125
0.403652
0.00178293
-0.00627243
-0.562932
0.567422
0.0114654
-0.0174752
-0.695854
0.701864
0.0247877
-0.0316454
-0.817193
0.824051
0.0391268
-0.0458405
-0.941496
0.94821
0.0531193
-0.0592216
-1.08275
1.08885
0.0656897
-0.0704993
-1.24303
1.24784
0.0750642
-0.0780712
-1.42337
1.42637
0.0797792
-0.079335
-1.62751
1.62707
0.0772499
-0.073666
-1.56125
1.55767
0.0692995
-0.0637853
-1.26702
1.26151
0.0586138
-0.0529762
-1.04055
1.03492
0.0473996
-0.0412668
-0.841513
0.83538
0.0343564
-0.025936
-0.61462
0.606199
0.0183781
-0.0117297
-0.35844
0.351792
0.00769984
-0.00500862
-0.154446
0.151754
0.00348543
-0.00239621
-0.0416722
0.040583
0.00151346
-0.000592972
0.000871522
-0.00179201
0.000147161
0.00356798
-0.00371515
-0.0795744
0.077099
0.00247535
-0.00666299
0.00577964
-0.410209
0.411093
-0.00233034
-0.000882009
-0.575127
0.578339
0.00508091
-0.0105164
-0.708641
0.714077
0.0166339
-0.0226284
-0.830218
0.836213
0.0290775
-0.0348717
-0.954453
0.960247
0.041065
-0.046433
-1.09478
1.10015
0.0518283
-0.056127
-1.25246
1.25676
0.0598734
-0.0621652
-1.42895
1.43124
0.0631213
-0.0620004
-1.62635
1.62523
0.0592908
-0.0548985
-1.55327
1.54888
0.0500187
-0.0441013
-1.25576
1.24984
0.0383997
-0.031989
-1.02806
1.02165
0.0260678
-0.0197719
-0.825764
0.819468
0.0139204
-0.00757295
-0.595483
0.589135
0.00294246
-2.9996e-05
-0.343368
0.340455
-0.000932389
0.00088419
-0.147449
0.147497
-0.000465145
1.77084e-05
-0.038748
0.0391954
0.000150363
-7.50125e-05
0.00268614
-0.00276149
2.63703e-05
0.00411029
-0.00413666
-0.0780793
0.0759423
0.00213699
-0.00661498
0.00627895
-0.416355
0.416691
-0.004247
0.00166967
-0.584439
0.587016
0.00235538
-0.00698224
-0.719432
0.724059
0.0122136
-0.017396
-0.84142
0.846603
0.0230969
-0.0282325
-0.965669
0.970805
0.0338351
-0.0384703
-1.10521
1.10984
0.0432281
-0.0469827
-1.26072
1.26447
0.0501165
-0.0518852
-1.4332
1.43497
0.0522832
-0.0510611
-1.62391
1.62269
0.0479133
-0.043309
-1.54395
1.53934
0.0381176
-0.0318588
-1.24361
1.23735
0.0260666
-0.0191689
-1.01451
1.00761
0.0129273
-0.00659483
-0.810563
0.80423
0.0014324
0.00330772
-0.580462
0.575722
-0.00621495
0.00721487
-0.334984
0.333984
-0.00638584
0.00490236
-0.145872
0.147356
-0.00348988
0.00199152
-0.0391188
0.0406171
-0.00100347
0.000403145
0.00276465
-0.00216433
-9.60754e-05
0.00433082
-0.00423475
-0.076898
0.0752148
0.00168322
-0.00579331
0.00582399
-0.420818
0.420788
-0.00422787
0.00232467
-0.592501
0.594404
0.00140365
-0.00556728
-0.728712
0.732876
0.010502
-0.0149366
-0.851381
0.855816
0.0199076
-0.0244188
-0.975887
0.980398
0.0296745
-0.0338224
-1.11448
1.11863
0.0379621
-0.0414117
-1.268
1.27145
0.0445494
-0.0459985
-1.43669
1.43814
0.0462288
-0.0447108
-1.62099
1.61947
0.0417065
-0.036732
-1.53445
1.52947
0.0316246
-0.0254521
-1.23084
1.22467
0.0194715
-0.012745
-1.00038
0.99365
0.00646469
7.49578e-06
-0.795927
0.789455
-0.00436861
0.0084018
-0.568237
0.564204
-0.0106971
0.0107976
-0.330193
0.330092
-0.0094037
0.00740376
-0.147231
0.149231
-0.00545164
0.00335814
-0.0415952
0.0436887
-0.00183117
0.000791974
0.00146637
-0.000427168
-0.000203517
0.00422907
-0.00402555
-0.0762064
0.0748708
0.00133556
-0.00475615
0.00493725
-0.42426
0.424079
-0.0035716
0.00177582
-0.599448
0.601244
0.00177432
-0.00546225
-0.736994
0.740682
0.00965899
-0.0139044
-0.860182
0.864427
0.0184554
-0.0230578
-0.984692
0.989295
0.0275234
-0.0314248
-1.12284
1.12674
0.0356119
-0.0387275
-1.27474
1.27785
0.0412708
-0.0430111
-1.43945
1.44119
0.0432582
-0.0418438
-1.61795
1.61654
0.0388015
-0.0341824
-1.52464
1.52002
0.0291974
-0.0231514
-1.21815
1.2121
0.0173877
-0.0107991
-0.986574
0.979986
0.00470939
0.00133714
-0.781781
0.775734
-0.00593049
0.00945933
-0.557417
0.553888
-0.0114091
0.011677
-0.327217
0.326949
-0.0104068
0.00827754
-0.149644
0.151773
-0.00626956
0.00404066
-0.045118
0.0473469
-0.00231906
0.00100293
-0.000672267
0.00198841
-0.000267819
0.00388838
-0.00362056
-0.0760371
0.0749177
0.00111945
-0.00350161
0.00346502
-0.427277
0.427314
-0.00240173
0.00065632
-0.605763
0.607509
0.00272852
-0.00626497
-0.744627
0.748164
0.0102604
-0.0140683
-0.868437
0.872245
0.0186964
-0.0224667
-0.993294
0.997064
0.0268511
-0.030519
-1.13077
1.13443
0.0345263
-0.0377704
-1.28091
1.28416
0.0405139
-0.0419424
-1.44265
1.44408
0.0424129
-0.0412696
-1.61501
1.61386
0.0387263
-0.0342777
-1.51525
1.5108
0.029626
-0.0238874
-1.20617
1.20044
0.0184389
-0.0120964
-0.973078
0.966736
0.00637849
-0.000346535
-0.76846
0.762428
-0.00424409
0.00771716
-0.547516
0.544043
-0.00970618
0.0102428
-0.324312
0.323775
-0.00955637
0.00790163
-0.152029
0.153684
-0.00617853
0.00412232
-0.0488335
0.0508897
-0.00245782
0.00108455
-0.00315716
0.00453043
-0.000309079
0.00339196
-0.00308288
-0.0761464
0.0753581
0.000788331
-0.00235323
0.00186122
-0.430341
0.430833
-0.000959004
-0.000912286
-0.611269
0.61314
0.00392635
-0.0072978
-0.7517
0.755072
0.0110985
-0.0150099
-0.875893
0.879805
0.0189868
-0.0228869
-1.00102
1.00492
0.0271963
-0.0306175
-1.1385
1.14193
0.0346669
-0.0378146
-1.28717
1.29032
0.0405548
-0.0424504
-1.44588
1.44778
0.0433294
-0.0423854
-1.61273
1.61179
0.04001
-0.0362204
-1.50652
1.50273
0.032082
-0.0266945
-1.19462
1.18923
0.0215006
-0.0157426
-0.960296
0.954538
0.00999152
-0.00438224
-0.755471
0.749861
-0.000366088
0.0040909
-0.538008
0.534284
-0.00608885
0.00715534
-0.320893
0.319827
-0.00709307
0.0062347
-0.153612
0.15447
-0.00502002
0.00347305
-0.0520339
0.0535809
-0.00214595
0.000973981
-0.00557423
0.00674619
-0.000293956
0.00283001
-0.00253606
-0.0766776
0.0760538
0.000623841
-0.00137935
0.000975011
-0.43361
0.434014
0.000461851
-0.00229078
-0.616842
0.618671
0.00543643
-0.0086557
-0.758217
0.761436
0.0122853
-0.015773
-0.883362
0.88685
0.0198513
-0.0234128
-1.0088
1.01236
0.0276448
-0.0314756
-1.14578
1.14961
0.0351293
-0.0385738
-1.29348
1.29693
0.0416947
-0.0436396
-1.44955
1.45149
0.0448412
-0.0446355
-1.61105
1.61084
0.04267
-0.0394884
-1.49882
1.49564
0.0355677
-0.0306782
-1.18394
1.17905
0.0259663
-0.0204688
-0.948388
0.94289
0.0151902
-0.00972666
-0.743223
0.73776
0.00503811
-0.000744543
-0.528316
0.524023
-0.00177654
0.00331005
-0.316587
0.315053
-0.00398065
0.00384902
-0.153824
0.153956
-0.00329084
0.00240904
-0.0541668
0.0550486
-0.00155412
0.000732874
-0.00749021
0.00831145
-0.00024577
0.00232007
-0.0020743
-0.0774934
0.0770533
0.0004401
-0.000327614
-0.000230661
-0.43704
0.437598
0.00167328
-0.00379335
-0.622076
0.624196
0.00683785
-0.00988407
-0.764467
0.767514
0.0135897
-0.0169111
-0.890297
0.893619
0.0208149
-0.0244845
-1.01639
1.02006
0.0286006
-0.0323785
-1.15327
1.15705
0.0362337
-0.0396831
-1.30026
1.30371
0.042965
-0.0456335
-1.4537
1.45637
0.0472469
-0.0473077
-1.61056
1.61062
0.0460117
-0.043139
-1.49236
1.48948
0.0397865
-0.0354929
-1.17416
1.16987
0.0309323
-0.0257884
-0.937164
0.932021
0.0207913
-0.0153306
-0.731468
0.726008
0.0106951
-0.00602363
-0.518425
0.513754
0.00298258
-0.000702249
-0.311276
0.308996
-0.000571735
0.00122999
-0.152579
0.15192
-0.00138989
0.00117785
-0.0549665
0.0551785
-0.000838659
0.00043244
-0.00864988
0.0090561
-0.000165127
0.00193333
-0.0017682
-0.0785477
0.0782422
0.000305504