/*--------------------------------*- C++ -*----------------------------------*\
  =========                 |
  \\      /  F ield         | OpenFOAM: The Open Source CFD Toolbox
   \\    /   O peration     | Website:  https://openfoam.org
    \\  /    A nd           | Version:  9
     \\/     M anipulation  |
\*---------------------------------------------------------------------------*/
FoamFile
{
    format      ascii;
    class       volScalarField;
    location    "54";
    object      p;
}
// * * * * * * * * * * * * * * * * * * * * * * * * * * * * * * * * * * * * * //

dimensions      [0 2 -2 0 0 0 0];

internalField   nonuniform List<scalar> 
8800
(
0.853138
0.805351
0.766661
0.737665
0.716801
0.70197
0.691374
0.683895
0.679076
0.677021
0.678293
0.682485
0.689132
0.698449
0.711229
0.728963
0.753741
0.787681
0.830231
0.888933
0.684389
0.692068
0.699543
0.70285
0.701346
0.696268
0.689781
0.683703
0.678981
0.67614
0.675863
0.678372
0.682863
0.688809
0.695578
0.701858
0.705499
0.704763
0.699342
0.690652
0.662796
0.668955
0.673082
0.676025
0.678073
0.678676
0.677569
0.675464
0.673449
0.672544
0.67351
0.675893
0.678693
0.680874
0.681481
0.680281
0.677939
0.674545
0.669987
0.666226
0.656993
0.659643
0.662393
0.664794
0.666427
0.667587
0.668327
0.668444
0.668149
0.668102
0.668857
0.670029
0.670869
0.670933
0.670322
0.66923
0.667413
0.664841
0.662438
0.660934
0.651621
0.653045
0.654823
0.656852
0.658633
0.659972
0.660958
0.661754
0.662369
0.662936
0.663589
0.664086
0.664184
0.663895
0.663196
0.661945
0.660248
0.658398
0.65709
0.656258
0.646557
0.647477
0.648716
0.650279
0.651907
0.653428
0.65471
0.655774
0.656738
0.657633
0.658324
0.658651
0.658607
0.658164
0.65728
0.656076
0.654746
0.653484
0.65266
0.652109
0.641665
0.642335
0.643294
0.644592
0.645996
0.647449
0.648883
0.650201
0.651398
0.652505
0.653327
0.653692
0.653604
0.653089
0.652278
0.651325
0.650308
0.649382
0.648795
0.64839
0.636901
0.637417
0.638197
0.639322
0.640593
0.64196
0.643399
0.644865
0.646289
0.647623
0.648627
0.649092
0.649059
0.648666
0.648055
0.647322
0.646542
0.645854
0.645419
0.645102
0.632192
0.632603
0.633255
0.634255
0.635453
0.636772
0.638208
0.639755
0.641369
0.642961
0.6442
0.644847
0.644999
0.644817
0.644422
0.643896
0.643316
0.642818
0.642493
0.642236
0.627456
0.62779
0.628353
0.629273
0.630421
0.631722
0.63319
0.634831
0.636625
0.638497
0.640043
0.640972
0.64139
0.641451
0.641279
0.640969
0.640578
0.640237
0.639996
0.63978
0.622603
0.622881
0.623382
0.624255
0.625383
0.626706
0.628244
0.630019
0.632034
0.634228
0.63616
0.637455
0.638192
0.63853
0.638599
0.638505
0.638302
0.638098
0.637924
0.637738
0.617549
0.617782
0.618244
0.6191
0.620248
0.621637
0.623286
0.625247
0.627546
0.630141
0.632548
0.634282
0.635391
0.636047
0.636384
0.636512
0.636493
0.636414
0.636296
0.636131
0.612204
0.612402
0.612844
0.613713
0.614922
0.616419
0.618235
0.620449
0.623111
0.626213
0.629195
0.631449
0.632993
0.634009
0.634645
0.635006
0.635188
0.635225
0.635153
0.635003
0.606469
0.606639
0.607078
0.607989
0.6093
0.610957
0.613006
0.615554
0.61868
0.62241
0.62609
0.628966
0.631019
0.632447
0.633422
0.634065
0.634441
0.634589
0.634556
0.634415
0.600231
0.600377
0.600828
0.60181
0.603271
0.605147
0.607505
0.610479
0.61419
0.618693
0.62322
0.626838
0.629497
0.631409
0.632768
0.633714
0.634312
0.634576
0.63458
0.634445
0.593356
0.593476
0.593955
0.59504
0.596701
0.598867
0.601621
0.605137
0.609576
0.615026
0.620579
0.625089
0.628465
0.630948
0.632759
0.634048
0.634896
0.63528
0.635318
0.635184
0.585672
0.585767
0.586289
0.587512
0.589431
0.591964
0.595226
0.599427
0.604771
0.611382
0.618175
0.623749
0.627972
0.631127
0.633479
0.635176
0.636296
0.636805
0.636875
0.636739
0.576948
0.577049
0.577624
0.579004
0.581253
0.584264
0.588174
0.593239
0.59971
0.607744
0.616029
0.622868
0.628088
0.632031
0.635023
0.63719
0.638622
0.639266
0.639367
0.639225
0.566892
0.566974
0.567638
0.569242
0.571922
0.575547
0.580278
0.586429
0.594305
0.604082
0.614158
0.622488
0.628887
0.633758
0.637486
0.640211
0.641995
0.642782
0.642912
0.64276
0.555136
0.5552
0.555963
0.55788
0.561115
0.565529
0.571311
0.57884
0.588463
0.600363
0.612582
0.622672
0.630449
0.636408
0.640991
0.644365
0.646538
0.647473
0.647627
0.647463
0.541141
0.541194
0.542099
0.544427
0.548393
0.553847
0.561001
0.570303
0.582124
0.596619
0.611377
0.623512
0.632864
0.640077
0.645653
0.649762
0.652357
0.65344
0.653613
0.653432
0.524148
0.524188
0.525309
0.52822
0.533191
0.540053
0.549037
0.560648
0.575242
0.592884
0.61062
0.625102
0.636243
0.644872
0.651561
0.656492
0.659528
0.660748
0.660929
0.660729
0.503033
0.503072
0.504533
0.508314
0.514729
0.523571
0.535066
0.549729
0.56782
0.589252
0.610421
0.627535
0.640675
0.650879
0.658778
0.664609
0.668077
0.669406
0.669578
0.669356
0.476067
0.476125
0.478167
0.483356
0.492005
0.50376
0.518788
0.537503
0.559962
0.585874
0.610937
0.630938
0.646239
0.658161
0.66736
0.674103
0.67795
0.679333
0.679477
0.679232
0.440237
0.440391
0.44363
0.451418
0.463844
0.480042
0.500112
0.524162
0.551991
0.583088
0.61242
0.635476
0.653026
0.666719
0.6773
0.684883
0.688986
0.69034
0.690429
0.690163
0.3898
0.390759
0.397199
0.410322
0.429314
0.45238
0.479397
0.510173
0.544311
0.581165
0.615034
0.641246
0.661083
0.676539
0.688464
0.696734
0.700906
0.702125
0.702138
0.701854
0.315885
0.323064
0.33797
0.361073
0.389865
0.422127
0.45764
0.496181
0.537358
0.580499
0.619258
0.648887
0.671229
0.688654
0.70201
0.710898
0.71507
0.716147
0.716107
0.715859
0.236314
0.253347
0.277521
0.311272
0.350249
0.391864
0.435969
0.482496
0.531136
0.581299
0.625939
0.65991
0.685452
0.705331
0.720501
0.729943
0.73386
0.734692
0.734672
0.734524
0.170023
0.19011
0.221962
0.26473
0.312709
0.363131
0.415556
0.469912
0.525879
0.582876
0.633142
0.671179
0.699718
0.721767
0.738159
0.74773
0.751425
0.752187
0.752217
0.752126
0.115727
0.137465
0.174813
0.223981
0.279069
0.336919
0.396724
0.458282
0.521142
0.584642
0.640245
0.682085
0.71331
0.737212
0.754712
0.764694
0.768622
0.769471
0.76952
0.769465
0.0704796
0.0934082
0.134541
0.188795
0.249605
0.313588
0.379722
0.44767
0.516831
0.586411
0.647055
0.692485
0.726263
0.752011
0.770688
0.781456
0.785686
0.786486
0.786585
0.786569
0.0320279
0.0556373
0.0996266
0.157927
0.223543
0.292744
0.364376
0.43801
0.512912
0.588135
0.65352
0.702349
0.73856
0.766101
0.785954
0.797492
0.802076
0.80297
0.803101
0.803111
-0.0016342
0.0224327
0.0686966
0.130318
0.199998
0.273735
0.350243
0.428998
0.509164
0.589647
0.659495
0.711534
0.750032
0.779227
0.800164
0.81237
0.817349
0.81844
0.818616
0.818637
-0.0319832
-0.00751029
0.0406138
0.105072
0.178255
0.255963
0.336835
0.420256
0.5053
0.590741
0.664831
0.719894
0.760506
0.791134
0.813049
0.82587
0.831189
0.832505
0.83269
0.832704
-0.0599665
-0.0351205
0.0145977
0.0814894
0.157757
0.238979
0.323775
0.411471
0.501076
0.59123
0.669396
0.727348
0.769926
0.80188
0.824586
0.837852
0.84343
0.844899
0.845106
0.845117
-0.0863735
-0.0611085
-0.00989049
0.0590789
0.138089
0.222446
0.310788
0.402413
0.496293
0.590961
0.673106
0.733891
0.778341
0.811488
0.834791
0.848394
0.854146
0.855718
0.855924
0.85591
-0.111566
-0.0858663
-0.0334655
0.0375267
0.118958
0.206127
0.297678
0.39292
0.490816
0.589844
0.675932
0.739559
0.785866
0.820122
0.844006
0.857748
0.863578
0.865203
0.865376
0.865331
-0.13595
-0.109685
-0.0562383
0.0165772
0.100168
0.189858
0.284321
0.382891
0.484558
0.587801
0.677848
0.744398
0.792607
0.827981
0.852341
0.866153
0.871978
0.873576
0.873736
0.873666
-0.159652
-0.132967
-0.0783394
-0.00392304
0.081601
0.173551
0.270647
0.37227
0.477462
0.584783
0.678839
0.748451
0.798694
0.835238
0.859994
0.873768
0.879511
0.881038
0.881164
0.881071
-0.182796
-0.155575
-0.0999139
-0.0240518
0.0632066
0.157174
0.256632
0.361032
0.469503
0.580751
0.678862
0.751741
0.804232
0.842029
0.867104
0.880742
0.886311
0.887726
0.887785
0.887657
-0.205504
-0.177695
-0.121032
-0.0438371
0.0449597
0.140725
0.242295
0.349199
0.460685
0.575674
0.677864
0.754255
0.809308
0.848498
0.87382
0.887184
0.892432
0.893656
0.893642
0.893489
-0.227785
-0.199305
-0.141705
-0.063281
0.0268934
0.124236
0.22768
0.336815
0.451035
0.569528
0.675782
0.75595
0.813957
0.854782
0.880324
0.89321
0.897944
0.8989
0.898813
0.898647
-0.249482
-0.220369
-0.161871
-0.0823546
0.00903972
0.107772
0.212847
0.323952
0.440612
0.562334
0.672548
0.756744
0.818142
0.86101
0.886906
0.899083
0.90297
0.903514
0.903347
0.90319
-0.270573
-0.240858
-0.181516
-0.101009
-0.00854324
0.0913917
0.197887
0.310688
0.429492
0.55412
0.668113
0.75651
0.821755
0.867243
0.89395
0.90531
0.907835
0.907587
0.907277
0.907158
-0.291124
-0.260735
-0.200612
-0.119213
-0.0257932
0.0751776
0.182885
0.297126
0.417768
0.544946
0.662435
0.755096
0.82459
0.873372
0.90178
0.912757
0.913458
0.911542
0.910739
0.910881
-0.310963
-0.279978
-0.219103
-0.136901
-0.0426519
0.0592122
0.167936
0.283376
0.405554
0.534909
0.655507
0.752334
0.826357
0.879033
0.910333
0.922389
0.921863
0.917454
0.914636
0.914098
-0.330183
-0.298576
-0.237006
-0.154104
-0.059152
0.0434527
0.152985
0.269382
0.392784
0.523938
0.647196
0.747944
0.826735
0.883686
0.918905
0.934406
0.935378
0.929359
0.920929
0.906644
-0.348711
-0.316515
-0.254438
-0.171019
-0.0755773
0.0275696
0.137622
0.254667
0.378928
0.511401
0.63686
0.741139
0.825132
0.886554
0.925678
0.94639
0.949675
0.937552
0.918067
0.905923
-0.366369
-0.333928
-0.271204
-0.187438
-0.0915858
0.0119057
0.12207
0.239554
0.364289
0.497561
0.624572
0.731458
0.820766
0.88651
0.926338
0.946855
0.953162
0.93043
0.86255
0.831982
-0.382489
-0.352053
-0.286971
-0.202841
-0.106408
-0.00303788
0.106641
0.224271
0.349085
0.482539
0.610273
0.718599
0.812276
0.882918
0.916015
0.930785
0.921564
0.867992
0.798883
0.75633
-0.438415
-0.368036
-0.30132
-0.218328
-0.121639
-0.0187112
0.0912695
0.208538
0.33295
0.465888
0.593368
0.701947
0.795885
0.873114
0.879016
0.882825
0.834607
0.765076
0.688642
0.646085
-0.399606
-0.383494
-0.322733
-0.239016
-0.144067
-0.0412328
0.0677258
0.184321
0.307693
0.439119
0.564489
0.671075
0.75689
0.838094
0.826133
0.714242
0.609849
0.537196
0.464059
0.495081
-0.430776
-0.401263
-0.339536
-0.256604
-0.161659
-0.058995
0.0502199
0.166163
0.288444
0.418027
0.54056
0.642777
0.7198
0.762406
0.714722
0.567027
0.439883
0.348979
0.250456
0.301002
-0.454787
-0.422324
-0.359316
-0.27619
-0.181152
-0.078589
0.0305432
0.145649
0.266522
0.393689
0.512491
0.608534
0.67633
0.685157
0.579467
0.407353
0.255202
0.136845
0.00601506
0.0391077
-0.478303
-0.444275
-0.380059
-0.296013
-0.200854
-0.0984264
0.0101924
0.124337
0.243615
0.368004
0.482172
0.57062
0.622979
0.600828
0.443056
0.247399
0.0575254
-0.110025
-0.298322
-0.316261
-0.501219
-0.466724
-0.401595
-0.316765
-0.221424
-0.119198
-0.0112141
0.101854
0.219292
0.340528
0.449371
0.530162
0.563596
0.505375
0.313437
0.10349
-0.113407
-0.302427
-0.544293
-0.842495
-0.524429
-0.489918
-0.424225
-0.338885
-0.24333
-0.141249
-0.0338253
0.0781393
0.19364
0.311488
0.414715
0.487295
0.500181
0.390942
0.200761
-0.00865967
-0.212638
-0.384764
-0.453873
-0.53325
-0.548887
-0.514306
-0.448297
-0.362701
-0.267069
-0.165224
-0.0584478
0.0522485
0.16551
0.279468
0.37672
0.438432
0.426627
0.283749
0.100716
-0.0898234
-0.25232
-0.345028
-0.369105
-0.385045
-0.574906
-0.540198
-0.473983
-0.388296
-0.292772
-0.19133
-0.085437
0.0236973
0.134318
0.243762
0.334561
0.382424
0.353097
0.184339
0.0100931
-0.155462
-0.28173
-0.320736
-0.333633
-0.334948
-0.602688
-0.56777
-0.501346
-0.415664
-0.320386
-0.219571
-0.11481
-0.00756186
0.0999994
0.204379
0.28783
0.321577
0.272903
0.0925506
-0.0726722
-0.220973
-0.297146
-0.314259
-0.31551
-0.31529
-0.632294
-0.597079
-0.530407
-0.444797
-0.349923
-0.249932
-0.146567
-0.0415417
0.0625663
0.161393
0.236616
0.258641
0.174192
0.00867221
-0.148209
-0.2706
-0.307493
-0.305692
-0.304597
-0.303952
-0.663435
-0.627947
-0.561057
-0.475604
-0.381291
-0.282355
-0.180675
-0.0782152
0.0220544
0.114901
0.181753
0.187082
0.083941
-0.0694543
-0.20799
-0.283331
-0.294013
-0.296956
-0.297759
-0.297422
-0.695545
-0.659909
-0.593036
-0.507852
-0.414298
-0.316679
-0.216978
-0.117449
-0.0213673
0.0652547
0.123653
0.114263
0.00256466
-0.136187
-0.251511
-0.28313
-0.291579
-0.293414
-0.293368
-0.293106
-0.728153
-0.692416
-0.625881
-0.541137
-0.448593
-0.352576
-0.255198
-0.15896
-0.0674377
0.0131369
0.061309
0.0456087
-0.0724326
-0.191982
-0.282794
-0.297396
-0.290865
-0.290019
-0.28999
-0.289842
-0.760367
-0.724742
-0.658706
-0.574849
-0.483622
-0.389567
-0.294882
-0.20228
-0.115694
-0.040904
-0.00226317
-0.0170493
-0.137283
-0.240464
-0.288469
-0.29827
-0.293257
-0.289569
-0.288097
-0.28765
-0.790557
-0.755682
-0.690544
-0.608051
-0.518607
-0.426942
-0.335372
-0.24675
-0.165351
-0.0963397
-0.0603258
-0.0862058
-0.186409
-0.285712
-0.295321
-0.301753
-0.296005
-0.289026
-0.286148
-0.284976
-0.817152
-0.783352
-0.720246
-0.63955
-0.552491
-0.463744
-0.375791
-0.291536
-0.215352
-0.152405
-0.116004
-0.15123
-0.219184
-0.297538
-0.344219
-0.31838
-0.299237
-0.291852
-0.289238
-0.287903
-0.837984
-0.805965
-0.745665
-0.667902
-0.583951
-0.4988
-0.415025
-0.335593
-0.264718
-0.208066
-0.173766
-0.204839
-0.226823
-0.250448
-0.307847
-0.306488
-0.316279
-0.321781
-0.321388
-0.319496
-0.850807
-0.821536
-0.764958
-0.691174
-0.611429
-0.530721
-0.451806
-0.377653
-0.312457
-0.262337
-0.229563
-0.266539
-0.239101
-0.140021
-0.191958
-0.305187
-0.373063
-0.393567
-0.393714
-0.394146
-0.852923
-0.827761
-0.77609
-0.707503
-0.633156
-0.557972
-0.484645
-0.416299
-0.357313
-0.31439
-0.28041
-0.357335
-0.417461
-0.332251
-0.364524
-0.430092
-0.458527
-0.459459
-0.457035
-0.458132
-0.842165
-0.821888
-0.776823
-0.715207
-0.647548
-0.578911
-0.51193
-0.449823
-0.397523
-0.362016
-0.336193
-0.47349
-0.721823
-1.0064
-0.925609
-0.701403
-0.57298
-0.523395
-0.507663
-0.503923
-0.816468
-0.801162
-0.765337
-0.712974
-0.653465
-0.592291
-0.532147
-0.476182
-0.430221
-0.401523
-0.395094
-0.516796
-0.770685
-1.14768
-1.07937
-0.695361
-0.487642
-0.419627
-0.400982
-0.394162
-0.778156
-0.768262
-0.742246
-0.700869
-0.650743
-0.597643
-0.544114
-0.493711
-0.451603
-0.426614
-0.409941
-0.354906
-0.173594
-0.0504942
-0.0628324
-0.0903703
-0.143663
-0.166529
-0.16875
-0.166371
-0.733657
-0.728079
-0.712231
-0.681514
-0.641195
-0.595559
-0.547969
-0.501137
-0.459992
-0.431553
-0.408893
-0.211236
0.159713
0.660014
0.720955
0.417478
0.128398
-0.016807
-0.0688303
-0.0792868
-0.692411
-0.689091
-0.681291
-0.660243
-0.627786
-0.588223
-0.544898
-0.499719
-0.456372
-0.424107
-0.413425
-0.344942
-0.34792
-0.474925
-0.825403
-1.18307
-1.27226
-1.12622
-0.911971
-0.846381
-0.661301
-0.659175
-0.655233
-0.641746
-0.61517
-0.579126
-0.537401
-0.490867
-0.442377
-0.400488
-0.37739
-0.472254
-0.919723
-1.66277
-2.22895
-2.38042
-2.22458
-1.90944
-1.64578
-1.53986
-0.63678
-0.635929
-0.634676
-0.627726
-0.606218
-0.571706
-0.528255
-0.477735
-0.421924
-0.356548
-0.302561
-0.297674
-0.508608
-0.705067
-0.824594
-0.744634
-0.462328
-0.179244
0.0106275
0.0854589
-0.621824
-0.621477
-0.621009
-0.618023
-0.601463
-0.566552
-0.519193
-0.463236
-0.395292
-0.31364
-0.22172
-0.0931015
0.0436587
0.260458
0.546006
0.901832
1.2551
1.48708
1.60021
1.6346
-0.611206
-0.611027
-0.610615
-0.610151
-0.59871
-0.563748
-0.512684
-0.449739
-0.373385
-0.277999
-0.152663
-0.0170265
0.215477
0.632183
1.15288
1.63256
1.99064
2.19287
2.2743
2.29128
-0.603093
-0.603294
-0.603677
-0.604032
-0.595523
-0.562684
-0.509516
-0.441077
-0.355968
-0.24686
-0.120421
0.0126511
0.231264
0.677577
1.16803
1.60999
1.91996
2.08276
2.144
2.15664
-0.595672
-0.595573
-0.5946
-0.59289
-0.587286
-0.562587
-0.512352
-0.439682
-0.347145
-0.236597
-0.114696
0.0113306
0.167754
0.537045
0.934272
1.27674
1.51257
1.63418
1.67836
1.68762
-0.603042
-0.599754
-0.587788
-0.573146
-0.572698
-0.571006
-0.525733
-0.445809
-0.346875
-0.234575
-0.12069
-0.00715849
0.109783
0.373581
0.661485
0.896082
1.06095
1.14352
1.17406
1.18035
-0.655272
-0.650082
-0.640355
-0.635504
-0.638343
-0.627704
-0.557746
-0.458074
-0.348643
-0.235553
-0.131145
-0.0350992
0.0566066
0.232231
0.424781
0.577067
0.680981
0.732752
0.752487
0.757608
-0.755906
-0.763504
-0.788644
-0.805656
-0.797806
-0.736191
-0.604472
-0.46839
-0.345675
-0.234891
-0.145792
-0.0712611
-0.002825
0.124439
0.250643
0.34309
0.403864
0.43361
0.446748
0.450311
-0.821533
-0.841854
-0.874978
-0.893997
-0.876075
-0.780184
-0.610221
-0.455674
-0.331414
-0.229932
-0.15823
-0.104868
-0.0599402
0.0283093
0.11839
0.184243
0.22477
0.245053
0.254517
0.257035
-0.713259
-0.733776
-0.764002
-0.784101
-0.763677
-0.666231
-0.526803
-0.399171
-0.29393
-0.211648
-0.159987
-0.129558
-0.102751
-0.0291618
0.0370713
0.0846202
0.116439
0.133466
0.140804
0.142207
-0.435358
-0.448766
-0.470828
-0.489736
-0.484921
-0.437271
-0.368773
-0.298051
-0.234253
-0.180017
-0.148415
-0.142559
-0.139469
-0.0662407
-0.00475043
0.0357296
0.0614755
0.0742505
0.079261
0.0798031
-0.139438
-0.145563
-0.159207
-0.179791
-0.198239
-0.207267
-0.203393
-0.187549
-0.16378
-0.136773
-0.120647
-0.123316
-0.118891
-0.0636702
-0.0184466
0.0112858
0.0299094
0.0397195
0.0435798
0.0439319
0.0525021
0.0497529
0.0398686
0.0180471
-0.0158497
-0.0516009
-0.0792826
-0.0951232
-0.0978247
-0.0895069
-0.0787937
-0.0723525
-0.0547736
-0.0196823
0.00578458
0.0205462
0.0290076
0.0339257
0.0360532
0.035995
0.133439
0.131633
0.123716
0.104052
0.0711668
0.0323232
-0.00353643
-0.0301936
-0.0444976
-0.0444218
-0.032267
-0.0124742
0.0166409
0.0330095
0.0389471
0.0432899
0.0464819
0.0496159
0.0511189
0.0506157
0.149842
0.148526
0.142654
0.127764
0.10223
0.0705566
0.0384617
0.0115205
-0.00563026
-0.00832944
0.00709671
0.0365611
0.0679246
0.0753846
0.0700226
0.0666049
0.0673024
0.0696896
0.0701244
0.069176
0.138537
0.137652
0.133675
0.123448
0.105532
0.0822504
0.0569498
0.0342134
0.0185086
0.0154763
0.0315728
0.0617204
0.0898922
0.0904489
0.0844533
0.0836778
0.0859268
0.0884721
0.088495
0.0867746
0.117947
0.117412
0.114858
0.108138
0.0960386
0.0796737
0.0609486
0.0431389
0.0300613
0.0269275
0.0402081
0.0643226
0.0849646
0.0797194
0.0722483
0.0738106
0.0789927
0.0826435
0.08267
0.0810168
0.0955851
0.0952899
0.0936909
0.0893479
0.0813018
0.0699745
0.0563481
0.0425548
0.0313016
0.0267499
0.0340578
0.0491903
0.0585824
0.0484287
0.0467729
0.0498675
0.0541911
0.0558969
0.0550039
0.0535753
0.074345
0.0741631
0.0731737
0.0703556
0.0649642
0.0570335
0.0469908
0.0359751
0.0255582
0.018157
0.01759
0.0211252
0.0210236
0.0107707
0.00835529
0.0120727
0.0154703
0.0151863
0.0144061
0.0135328
0.0553933
0.0552695
0.0545873
0.0527241
0.0490513
0.0433686
0.0356908
0.0263396
0.0157538
0.00425901
-0.00650703
-0.0171885
-0.0290984
-0.0405334
-0.0368248
-0.0302927
-0.0267483
-0.0265633
-0.027159
-0.0276729
0.0390804
0.0389979
0.0385229
0.0372562
0.0347202
0.0305218
0.0243929
0.0160075
0.00477735
-0.0111476
-0.0326739
-0.0576982
-0.0773869
-0.0824736
-0.0750607
-0.0673254
-0.0640762
-0.0636268
-0.0638184
-0.0641092
0.0256262
0.0255472
0.0252039
0.024353
0.0226214
0.0195584
0.0146004
0.00698987
-0.00473037
-0.0240243
-0.0546979
-0.0929327
-0.118925
-0.116316
-0.103487
-0.0941256
-0.0912064
-0.0911548
-0.0909547
-0.0909697
0.0151579
0.0150714
0.0148251
0.0143145
0.0131898
0.011011
0.0071531
0.000770297
-0.0105634
-0.0309634
-0.0662185
-0.112726
-0.139522
-0.129903
-0.113155
-0.104795
-0.103282
-0.103734
-0.103221
-0.102915
0.00765613
0.00757053
0.00740026
0.00713081
0.00651733
0.005137
0.00241524
-0.00257533
-0.0115317
-0.0293852
-0.0623174
-0.106846
-0.127811
-0.111811
-0.0976832
-0.093426
-0.0940095
-0.0950836
-0.0944285
-0.0939291
0.00286709
0.00279417
0.00269453
0.00261188
0.0024196
0.00179479
0.000300653
-0.00270726
-0.00835491
-0.0197434
-0.0417255
-0.0730231
-0.0827616
-0.068433
-0.0592795
-0.0597612
-0.0622356
-0.0639063
-0.0634338
-0.0629815
0.000331399
0.000305261
0.0002541
0.000255785
0.000392568
0.000472266
0.000330335
-5.62188e-05
-0.000806327
-0.00232744
-0.00569601
-0.0126429
-0.0193261
-0.0162667
-0.0173172
-0.017035
-0.017364
-0.0164018
-0.0149207
-0.014221
-0.0687468
0.0984586
0.293717
0.464182
0.600518
0.708042
0.797042
0.872795
0.907279
0.884003
0.234857
0.355799
0.48596
0.598502
0.693419
0.772012
0.835661
0.880848
0.903472
0.915549
0.454311
0.537304
0.626281
0.704892
0.772528
0.829124
0.874138
0.907027
0.930792
0.948772
0.615502
0.674887
0.736705
0.793926
0.843707
0.88599
0.92072
0.948425
0.971239
0.989537
0.741207
0.784417
0.830467
0.874361
0.913137
0.947012
0.976006
1.00014
1.02053
1.03837
0.845689
0.878621
0.916794
0.952393
0.985071
1.01436
1.03996
1.06148
1.07934
1.09669
0.938336
0.967062
1.00107
1.03324
1.06322
1.09042
1.11419
1.13393
1.14944
1.16652
1.02698
1.05621
1.09024
1.1223
1.15193
1.17853
1.20141
1.21991
1.23329
1.25032
1.12233
1.15555
1.19221
1.2258
1.25586
1.28205
1.30402
1.3213
1.33317
1.35057
1.23735
1.27518
1.31383
1.34809
1.37744
1.40219
1.42257
1.43847
1.44994
1.468
1.3823
1.42085
1.45699
1.48769
1.51337
1.53547
1.55453
1.57006
1.58249
1.60048
1.55739
1.58901
1.61519
1.63764
1.65762
1.67634
1.69406
1.71054
1.72589
1.74396
1.746
1.76321
1.77824
1.79447
1.81038
1.82492
1.83812
1.85205
1.86959
1.88975
1.92772
1.93726
1.9488
1.95961
1.9689
1.97848
1.98927
2.00063
2.012
2.02735
2.13496
2.13862
2.12368
2.10887
2.10259
2.10827
2.12675
2.15706
2.18924
2.21589
2.44128
2.30642
2.22978
2.1874
2.16998
2.17394
2.20134
2.25775
2.36037
2.58474
0.743738
0.741609
0.737126
0.7285
0.716275
0.704144
0.693913
0.686015
0.680394
0.677136
0.676776
0.679509
0.684609
0.691827
0.701212
0.712749
0.725398
0.736431
0.742543
0.745596
0.668193
0.67404
0.680372
0.684863
0.687332
0.687005
0.684266
0.680453
0.676939
0.674675
0.674522
0.676714
0.680371
0.684655
0.688458
0.690339
0.6894
0.685916
0.680753
0.674132
0.65977
0.662066
0.665469
0.668463
0.670536
0.67203
0.672782
0.672462
0.671433
0.670545
0.670713
0.672133
0.673941
0.675241
0.675416
0.674522
0.672969
0.670631
0.667366
0.664445
0.654263
0.655349
0.657181
0.659556
0.661577
0.663002
0.664018
0.664766
0.665162
0.665379
0.665862
0.666659
0.667248
0.667307
0.666888
0.666034
0.664561
0.662473
0.660385
0.659001
0.649064
0.649727
0.650833
0.652536
0.654314
0.655941
0.657232
0.658242
0.659118
0.659901
0.66062
0.66116
0.661342
0.661165
0.66059
0.659528
0.658094
0.656546
0.655225
0.654445
0.644094
0.644555
0.645339
0.646634
0.648117
0.649628
0.651087
0.652378
0.653506
0.654551
0.655453
0.656006
0.656136
0.655848
0.65514
0.654141
0.653008
0.65187
0.650952
0.650434
0.639273
0.639618
0.640227
0.641291
0.64258
0.643947
0.645378
0.646814
0.648176
0.649443
0.650537
0.651208
0.651365
0.651073
0.650459
0.64967
0.64881
0.647936
0.64726
0.646881
0.634547
0.634815
0.635307
0.636211
0.637374
0.638662
0.640046
0.641523
0.64305
0.644553
0.645879
0.646721
0.646998
0.646855
0.646443
0.645868
0.645206
0.644558
0.644062
0.643773
0.629836
0.630049
0.630457
0.63125
0.632332
0.63357
0.634943
0.636463
0.638116
0.63985
0.641453
0.642548
0.643053
0.643143
0.642954
0.642593
0.642133
0.641674
0.641316
0.641089
0.625053
0.625224
0.625574
0.626293
0.627327
0.628542
0.62994
0.631539
0.633344
0.635323
0.637258
0.638695
0.639511
0.639877
0.639931
0.639791
0.639537
0.639246
0.639003
0.638822
0.62011
0.620249
0.620557
0.621231
0.622247
0.623484
0.624945
0.626666
0.628672
0.630952
0.633291
0.635157
0.636347
0.637033
0.637361
0.637456
0.637404
0.637274
0.637128
0.636982
0.614923
0.615035
0.615314
0.615969
0.617001
0.618305
0.619873
0.621768
0.624044
0.626704
0.629544
0.631925
0.633554
0.634608
0.635247
0.635594
0.635749
0.635782
0.635719
0.635602
0.609395
0.609484
0.609748
0.610407
0.611492
0.612904
0.614634
0.616772
0.619395
0.622541
0.625997
0.628995
0.631142
0.632622
0.633606
0.63425
0.634633
0.634816
0.634828
0.634731
0.603424
0.603492
0.603749
0.604435
0.605611
0.60718
0.609135
0.611594
0.61466
0.618414
0.622623
0.626365
0.629128
0.631106
0.632488
0.633459
0.634093
0.634439
0.63452
0.634441
0.596884
0.596933
0.597191
0.597926
0.599233
0.601014
0.603267
0.606137
0.609767
0.614273
0.6194
0.624039
0.627535
0.630103
0.631949
0.633283
0.634207
0.634728
0.634879
0.634814
0.589625
0.589655
0.589918
0.590727
0.59221
0.594267
0.596902
0.600296
0.604632
0.610063
0.616308
0.622028
0.626397
0.629661
0.632058
0.633822
0.635077
0.635785
0.636003
0.635951
0.581462
0.581479
0.581743
0.58265
0.584361
0.586761
0.58989
0.593951
0.599172
0.60575
0.613355
0.620364
0.625769
0.629849
0.632894
0.63518
0.636805
0.637717
0.638006
0.637962
0.572084
0.572071
0.572397
0.573441
0.575439
0.578291
0.58205
0.586952
0.593281
0.601275
0.61053
0.619079
0.625706
0.630749
0.634555
0.637449
0.639502
0.640642
0.641003
0.640965
0.561219
0.56118
0.56155
0.562787
0.565154
0.56859
0.573153
0.579124
0.586844
0.596586
0.607837
0.618215
0.626276
0.63245
0.637151
0.640747
0.643295
0.644682
0.645115
0.64508
0.548389
0.548324
0.54877
0.550257
0.553107
0.557306
0.562909
0.570252
0.579728
0.591627
0.605282
0.617825
0.627558
0.635043
0.640795
0.645196
0.648303
0.649952
0.650454
0.650417
0.53296
0.532865
0.533435
0.535271
0.538769
0.543988
0.550973
0.560114
0.57184
0.586415
0.602948
0.618007
0.629656
0.638632
0.645585
0.650901
0.654622
0.656541
0.657101
0.657057
0.514003
0.513881
0.514648
0.516995
0.521405
0.528041
0.536914
0.548451
0.563073
0.580957
0.600901
0.618845
0.632659
0.643315
0.651595
0.657939
0.662316
0.664493
0.665095
0.665037
0.490127
0.489988
0.491084
0.494223
0.500005
0.508713
0.520264
0.535062
0.553423
0.575352
0.599277
0.620471
0.636674
0.649168
0.658892
0.666357
0.671387
0.673783
0.674397
0.674315
0.459032
0.458912
0.460615
0.465126
0.473193
0.48512
0.500595
0.519868
0.543022
0.569829
0.598302
0.623055
0.641805
0.656255
0.667519
0.676145
0.681751
0.68428
0.684864
0.684751
0.416606
0.416645
0.419682
0.42705
0.439347
0.456536
0.477822
0.503131
0.53226
0.564762
0.598259
0.626783
0.648168
0.664625
0.677453
0.687193
0.693208
0.695723
0.696222
0.696074
0.355154
0.356334
0.363765
0.377506
0.397522
0.423069
0.452526
0.485506
0.521694
0.560547
0.599376
0.631762
0.65578
0.674201
0.68851
0.699169
0.705382
0.707654
0.707981
0.707803
0.282142
0.283866
0.298099
0.321716
0.352573
0.387997
0.426397
0.467592
0.511392
0.557298
0.602347
0.639543
0.667029
0.688013
0.704188
0.715946
0.72231
0.724453
0.72475
0.724665
0.206729
0.212839
0.233876
0.267651
0.308845
0.353863
0.401167
0.450624
0.502116
0.555191
0.606675
0.648885
0.679974
0.703714
0.722004
0.734653
0.740785
0.742548
0.742777
0.742745
0.145047
0.153447
0.179043
0.219796
0.269066
0.322267
0.3776
0.4348
0.493652
0.553645
0.61129
0.658221
0.692637
0.718793
0.738661
0.751923
0.758058
0.759664
0.759993
0.760038
0.0948586
0.103853
0.132987
0.178958
0.234348
0.29415
0.356281
0.420318
0.485878
0.552333
0.615806
0.667198
0.704699
0.733063
0.754435
0.768498
0.774822
0.776862
0.777278
0.777365
0.0527914
0.0620728
0.0936607
0.143625
0.204035
0.269313
0.337201
0.407209
0.478801
0.551213
0.620149
0.675755
0.716195
0.746706
0.769593
0.784647
0.791576
0.793932
0.794397
0.794464
0.0165035
0.0259057
0.0593469
0.112513
0.177066
0.247015
0.319923
0.395224
0.472271
0.55017
0.624217
0.683796
0.727017
0.75956
0.783924
0.799911
0.807536
0.810106
0.810659
0.810742
-0.0156585
-0.00620763
0.0286615
0.084531
0.15256
0.226534
0.303879
0.383934
0.46597
0.548969
0.627834
0.691169
0.737004
0.771389
0.797054
0.813896
0.822179
0.824996
0.825579
0.825656
-0.0449573
-0.035453
0.000586581
0.0587916
0.129806
0.207298
0.288583
0.372948
0.459586
0.547379
0.630833
0.697751
0.746024
0.782106
0.80889
0.826437
0.835241
0.838263
0.838873
0.838933
-0.0722491
-0.0626849
-0.0255949
0.0345948
0.108274
0.188878
0.273685
0.361969
0.452874
0.5452
0.633072
0.703463
0.754071
0.791719
0.819455
0.837558
0.846667
0.849853
0.850502
0.850541
-0.0980893
-0.0884521
-0.0503787
0.0115057
0.087579
0.170951
0.258929
0.350786
0.445652
0.542283
0.634459
0.70829
0.761203
0.80032
0.828939
0.847425
0.856679
0.859978
0.860658
0.860667
-0.122974
-0.113155
-0.0742289
-0.0107287
0.0674548
0.153298
0.244138
0.339254
0.437805
0.538534
0.634935
0.712243
0.767498
0.808077
0.837487
0.856274
0.865586
0.868871
0.869527
0.869524
-0.147126
-0.137075
-0.0973831
-0.0323221
0.0477306
0.135782
0.2292
0.327292
0.429256
0.533885
0.634459
0.715332
0.773034
0.815141
0.845321
0.864304
0.873582
0.876803
0.877411
0.877363
-0.170649
-0.160383
-0.119857
-0.0534252
0.0283067
0.11834
0.214067
0.314855
0.419966
0.528284
0.632987
0.717561
0.777888
0.821659
0.852595
0.871656
0.880817
0.883923
0.884461
0.884393
-0.193688
-0.18311
-0.141824
-0.0740996
0.00914074
0.100938
0.198726
0.301944
0.409933
0.521719
0.630473
0.718899
0.782114
0.827756
0.859451
0.878479
0.887417
0.890322
0.890754
0.890646
-0.216207
-0.205343
-0.163304
-0.0943771
-0.00977037
0.0835931
0.183212
0.288595
0.399185
0.514184
0.626871
0.719289
0.785733
0.833538
0.866045
0.884902
0.89342
0.896012
0.896306
0.896163
-0.238258
-0.227077
-0.184236
-0.114236
-0.0284043
0.0663384
0.16757
0.274869
0.387776
0.505701
0.622141
0.718657
0.788706
0.839068
0.872576
0.891149
0.898972
0.901062
0.901188
0.901015
-0.25966
-0.248235
-0.204616
-0.133632
-0.0467116
0.0492474
0.151866
0.260838
0.375778
0.496329
0.616264
0.71692
0.79093
0.84435
0.879283
0.897613
0.904364
0.905594
0.905446
0.905266
-0.280554
-0.268774
-0.224424
-0.152545
-0.064658
0.0323608
0.136193
0.246585
0.363283
0.486146
0.609249
0.713974
0.792242
0.849266
0.886334
0.904864
0.910264
0.909963
0.909153
0.90895
-0.300771
-0.288669
-0.243627
-0.170925
-0.0821636
0.0157637
0.120634
0.23223
0.350399
0.475221
0.601138
0.709722
0.792432
0.853554
0.893638
0.91349
0.917995
0.91544
0.91285
0.91182
-0.320372
-0.30796
-0.262173
-0.188719
-0.0991905
-0.000473911
0.105272
0.217853
0.337239
0.46369
0.592006
0.704071
0.791263
0.85681
0.900652
0.923477
0.929082
0.92522
0.918675
0.91006
-0.339273
-0.326606
-0.280153
-0.20608
-0.115946
-0.0166253
0.0897751
0.203059
0.323358
0.451052
0.58132
0.696453
0.788214
0.858618
0.906625
0.933965
0.943722
0.940466
0.930436
0.924713
-0.357425
-0.344528
-0.297555
-0.222978
-0.132433
-0.0326866
0.0741585
0.187828
0.308711
0.437194
0.56889
0.68649
0.782514
0.858194
0.909514
0.940435
0.952677
0.95386
0.916248
0.864256
-0.374532
-0.360944
-0.314243
-0.239335
-0.14875
-0.0488083