/*--------------------------------*- C++ -*----------------------------------*\
  =========                 |
  \\      /  F ield         | OpenFOAM: The Open Source CFD Toolbox
   \\    /   O peration     | Website:  https://openfoam.org
    \\  /    A nd           | Version:  9
     \\/     M anipulation  |
\*---------------------------------------------------------------------------*/
FoamFile
{
    format      ascii;
    class       volScalarField;
    location    "42";
    object      p;
}
// * * * * * * * * * * * * * * * * * * * * * * * * * * * * * * * * * * * * * //

dimensions      [0 2 -2 0 0 0 0];

internalField   nonuniform List<scalar> 
8800
(
0.885755
0.837967
0.799274
0.770273
0.749402
0.734559
0.723947
0.716447
0.711601
0.709507
0.710732
0.714886
0.721503
0.730798
0.743562
0.761284
0.786054
0.81999
0.862535
0.921236
0.717014
0.724692
0.732158
0.735463
0.733954
0.728867
0.722369
0.716274
0.711525
0.708648
0.708326
0.71079
0.715244
0.721162
0.727913
0.734179
0.737809
0.737068
0.73164
0.722944
0.69543
0.701589
0.705712
0.708649
0.710689
0.711281
0.710157
0.70803
0.705983
0.705034
0.705948
0.708287
0.711052
0.713208
0.713795
0.712581
0.710227
0.706825
0.702263
0.698501
0.689649
0.692298
0.695044
0.697439
0.699063
0.70021
0.700932
0.701023
0.700692
0.700593
0.701293
0.702415
0.703215
0.703248
0.702614
0.701504
0.699673
0.697091
0.694682
0.693177
0.684308
0.685731
0.687503
0.689525
0.691297
0.692621
0.693587
0.694352
0.694925
0.695435
0.696023
0.696462
0.696513
0.696187
0.695459
0.694185
0.692469
0.690606
0.689291
0.68846
0.679282
0.680201
0.681435
0.68299
0.684608
0.686113
0.687372
0.688402
0.689317
0.690144
0.690759
0.691016
0.690914
0.690425
0.689504
0.688271
0.686917
0.685638
0.684806
0.684255
0.674439
0.675107
0.676063
0.677353
0.678746
0.680182
0.68159
0.68287
0.68401
0.685038
0.685767
0.686048
0.685887
0.685314
0.684455
0.683464
0.682415
0.681466
0.68087
0.680466
0.669736
0.670251
0.671027
0.672145
0.673404
0.674753
0.676163
0.677586
0.678946
0.680188
0.68108
0.681439
0.681315
0.680845
0.680172
0.67939
0.678568
0.677852
0.677407
0.677093
0.665104
0.665513
0.666162
0.667155
0.668341
0.669639
0.671044
0.672542
0.674083
0.675565
0.67667
0.677185
0.677222
0.676944
0.67647
0.675879
0.675247
0.674713
0.674376
0.674122
0.660463
0.660797
0.661357
0.66227
0.663405
0.664684
0.666115
0.667697
0.669403
0.671144
0.672527
0.673297
0.673575
0.673518
0.673246
0.672853
0.672393
0.672008
0.671754
0.671543
0.655731
0.656007
0.656505
0.657372
0.658487
0.659785
0.661279
0.662984
0.66489
0.666927
0.668664
0.669769
0.670337
0.670529
0.670471
0.670271
0.66998
0.669722
0.669534
0.669354
0.650827
0.651058
0.651517
0.652368
0.653504
0.654867
0.656467
0.658347
0.660519
0.662926
0.665099
0.666602
0.667505
0.667977
0.668154
0.668146
0.668019
0.667873
0.667739
0.667582
0.645672
0.645867
0.646306
0.647171
0.648369
0.649838
0.6516
0.653724
0.656244
0.659123
0.661826
0.6638
0.665087
0.665873
0.66631
0.666502
0.66654
0.666499
0.66641
0.66627
0.640177
0.640341
0.640776
0.641684
0.642985
0.644609
0.646596
0.649041
0.652004
0.655481
0.658828
0.661362
0.663102
0.664249
0.664976
0.6654
0.665602
0.665658
0.665609
0.665481
0.634237
0.634375
0.634821
0.635801
0.63725
0.639087
0.641368
0.644214
0.647722
0.65192
0.656062
0.659288
0.661583
0.663157
0.664218
0.664897
0.665281
0.665438
0.665427
0.665308
0.627738
0.62785
0.628321
0.6294
0.631044
0.633161
0.635827
0.639196
0.643404
0.648504
0.65361
0.657657
0.6606
0.662679
0.664122
0.665088
0.665679
0.665941
0.665966
0.665852
0.620518
0.62061
0.621116
0.622328
0.624221
0.626693
0.629848
0.633881
0.638961
0.645173
0.651455
0.656496
0.660208
0.662883
0.664791
0.666093
0.666914
0.66729
0.667352
0.66724
0.612367
0.612451
0.613011
0.61437
0.61658
0.619511
0.623291
0.628153
0.634327
0.641919
0.649621
0.655849
0.660485
0.663875
0.666342
0.66805
0.669135
0.669637
0.669735
0.669622
0.602998
0.603059
0.603697
0.605265
0.607882
0.611395
0.615957
0.621861
0.629378
0.638643
0.648092
0.655768
0.661514
0.66576
0.668901
0.671091
0.672494
0.673139
0.673274
0.673157
0.592043
0.592085
0.592817
0.594684
0.597823
0.602093
0.607677
0.614937
0.62419
0.635555
0.647072
0.656417
0.663458
0.668712
0.672628
0.675404
0.677171
0.677974
0.678146
0.678021
0.578982
0.579007
0.579877
0.582129
0.585955
0.59121
0.598108
0.607081
0.618466
0.632368
0.646402
0.657776
0.666361
0.672815
0.677673
0.681147
0.683344
0.68432
0.684524
0.684386
0.563039
0.563057
0.564132
0.566928
0.571696
0.578298
0.586978
0.598227
0.612368
0.629403
0.646379
0.660047
0.670386
0.678212
0.684162
0.68845
0.691136
0.692296
0.692523
0.692362
0.543032
0.543054
0.544463
0.548097
0.554247
0.56277
0.573911
0.588173
0.605779
0.626588
0.647004
0.663304
0.675632
0.685016
0.692175
0.697383
0.700587
0.701924
0.702159
0.70197
0.51714
0.517189
0.519186
0.524209
0.532548
0.54393
0.558565
0.576853
0.598822
0.624127
0.648454
0.667668
0.682159
0.693248
0.701731
0.707937
0.711657
0.713137
0.713359
0.713136
0.48233
0.482494
0.485709
0.493337
0.505432
0.521228
0.54088
0.564481
0.591818
0.62233
0.65098
0.673303
0.690088
0.702967
0.712861
0.72005
0.724214
0.725768
0.725951
0.725692
0.432861
0.433861
0.440332
0.453313
0.471943
0.494572
0.521138
0.551457
0.585129
0.621457
0.654722
0.68028
0.6994
0.7141
0.725453
0.733554
0.738031
0.739562
0.739675
0.73938
0.359779
0.367091
0.382154
0.405174
0.433522
0.465294
0.500338
0.538441
0.579203
0.621922
0.660226
0.689343
0.711104
0.727882
0.740895
0.749961
0.754794
0.756364
0.756464
0.756212
0.28096
0.298184
0.322611
0.356275
0.394782
0.435874
0.479517
0.52566
0.573993
0.623915
0.66835
0.702095
0.72737
0.746935
0.762151
0.772545
0.777728
0.779246
0.779388
0.779289
0.215441
0.235707
0.26794
0.31052
0.357967
0.407857
0.459831
0.513846
0.569596
0.626503
0.676788
0.71486
0.743399
0.765497
0.782555
0.793701
0.799051
0.800906
0.801114
0.801114
0.161782
0.183743
0.221445
0.270433
0.324911
0.382178
0.441509
0.502745
0.565456
0.629001
0.684801
0.726882
0.75833
0.782586
0.801102
0.813386
0.819637
0.821312
0.821549
0.821581
0.117019
0.140139
0.181586
0.23563
0.295803
0.359139
0.424769
0.492398
0.561448
0.631143
0.692081
0.737829
0.771909
0.798163
0.818132
0.831264
0.838011
0.839853
0.840202
0.840254
0.0788079
0.102608
0.146883
0.204911
0.269823
0.33832
0.409418
0.482709
0.557491
0.632833
0.698493
0.747608
0.784065
0.811986
0.83295
0.846805
0.853978
0.856208
0.856635
0.856698
0.045138
0.0693993
0.115904
0.177208
0.246114
0.319081
0.395017
0.473395
0.553404
0.633957
0.704013
0.756217
0.794753
0.823931
0.84559
0.859896
0.867426
0.870029
0.870572
0.870642
0.0145356
0.0392038
0.0875368
0.151658
0.223999
0.300881
0.38114
0.464141
0.548981
0.634436
0.708656
0.763747
0.8041
0.834301
0.85646
0.871119
0.878949
0.881815
0.882428
0.882487
-0.0139108
0.0111325
0.061067
0.12758
0.202969
0.283328
0.367464
0.454699
0.544063
0.634195
0.712445
0.770295
0.812318
0.843407
0.865966
0.880917
0.888951
0.891951
0.892562
0.892583
-0.0409452
-0.0154945
0.0359214
0.104547
0.182654
0.266124
0.353773
0.444907
0.538525
0.633174
0.715394
0.775964
0.819592
0.85151
0.874475
0.889597
0.897735
0.900805
0.901456
0.901446
-0.0668696
-0.0409999
0.0115838
0.0822638
0.162803
0.249076
0.339917
0.434652
0.532289
0.631327
0.717508
0.780831
0.826106
0.858896
0.882285
0.89759
0.905761
0.90882
0.909483
0.909469
-0.092045
-0.0656231
-0.0119899
0.0605373
0.143258
0.232057
0.325801
0.423863
0.525291
0.628593
0.718764
0.784953
0.831996
0.865762
0.889631
0.905105
0.913291
0.916294
0.916868
0.91681
-0.116549
-0.0897281
-0.0349443
0.0392268
0.123926
0.215001
0.311381
0.412506
0.517492
0.624924
0.719134
0.788362
0.837358
0.872236
0.896642
0.912277
0.920402
0.923304
0.923781
0.923656
-0.140474
-0.113152
-0.0573507
0.0182969
0.104771
0.197889
0.296647
0.400569
0.508871
0.620273
0.718558
0.791049
0.842255
0.878424
0.903418
0.919154
0.927113
0.92982
0.930178
0.930003
-0.163918
-0.136031
-0.0792552
-0.00226647
0.08579
0.180735
0.281624
0.388079
0.499433
0.614602
0.716965
0.792963
0.846717
0.884424
0.910066
0.925812
0.93348
0.935892
0.936128
0.935917
-0.186884
-0.158355
-0.100673
-0.0224514
0.0670242
0.163575
0.266363
0.375081
0.489202
0.607882
0.714281
0.794019
0.850721
0.890329
0.916739
0.932339
0.939494
0.941511
0.941609
0.941375
-0.20921
-0.180077
-0.121528
-0.0422214
0.0485084
0.146478
0.250926
0.361647
0.478234
0.600133
0.710432
0.794101
0.854179
0.896203
0.923663
0.938952
0.945229
0.946648
0.94659
0.946351
-0.230871
-0.20116
-0.141802
-0.0615214
0.030303
0.129503
0.235402
0.347853
0.466604
0.591382
0.705371
0.793067
0.856938
0.902024
0.93113
0.946131
0.95098
0.951343
0.951039
0.950849
-0.251935
-0.221572
-0.161472
-0.0803187
0.0124718
0.112733
0.219878
0.333801
0.454402
0.581693
0.699054
0.790769
0.858758
0.907588
0.939332
0.954695
0.957726
0.956048
0.955021
0.95509
-0.272235
-0.241296
-0.180482
-0.0985522
-0.00492693
0.0962514
0.204445
0.3196
0.441744
0.571166
0.691482
0.787051
0.859341
0.912441
0.948021
0.965469
0.96762
0.9631
0.959735
0.959057
-0.291868
-0.260325
-0.198855
-0.116255
-0.0219304
0.0800081
0.189044
0.305184
0.428556
0.559723
0.682519
0.781642
0.858352
0.915932
0.956277
0.978336
0.982812
0.977544
0.968012
0.952559
-0.310767
-0.278655
-0.216716
-0.133632
-0.038833
0.0636629
0.173249
0.290063
0.414292
0.546717
0.671504
0.773728
0.855149
0.917102
0.961888
0.99011
0.997977
0.986678
0.967445
0.953488
-0.328758
-0.296427
-0.233877
-0.150466
-0.0552974
0.0475644
0.157288
0.274565
0.399265
0.532419
0.658548
0.762906
0.849075
0.914822
0.960071
0.987856
0.999397
0.978188
0.909423
0.878008
-0.345183
-0.314873
-0.250011
-0.166221
-0.0705688
0.032214
0.141468
0.258916
0.383693
0.516962
0.643614
0.748942
0.838927
0.908643
0.946367
0.967067
0.962907
0.911273
0.841762
0.798744
-0.401233
-0.33115
-0.264726
-0.181986
-0.0862314
0.016158
0.125723
0.242837
0.367212
0.499908
0.626137
0.731348
0.821117
0.89781
0.903773
0.912626
0.870656
0.803763
0.727868
0.685403
-0.36309
-0.347049
-0.286563
-0.203387
-0.109174
-0.006925
0.101693
0.21815
0.341476
0.472571
0.596482
0.699583
0.780955
0.860061
0.852346
0.745397
0.643082
0.57181
0.499256
0.531655
-0.394443
-0.365094
-0.303711
-0.221317
-0.127116
-0.0250646
0.083815
0.199654
0.321914
0.451153
0.572125
0.671106
0.744438
0.786052
0.740551
0.596884
0.471692
0.381756
0.283356
0.335153
-0.418682
-0.386406
-0.323806
-0.241257
-0.146987
-0.0450315
0.0637817
0.178811
0.299684
0.42651
0.54374
0.636976
0.701185
0.710285
0.607428
0.436944
0.28583
0.167964
0.0366898
0.0704844
-0.442445
-0.408614
-0.344852
-0.261463
-0.167082
-0.065252
0.0430812
0.15718
0.276481
0.400555
0.513207
0.59992
0.648938
0.627262
0.472383
0.277597
0.087841
-0.0804146
-0.270586
-0.287321
-0.465637
-0.431345
-0.366714
-0.282607
-0.188065
-0.0864208
0.0213169
0.134375
0.251866
0.372844
0.480319
0.559905
0.590987
0.534226
0.344051
0.134697
-0.0826907
-0.272829
-0.517084
-0.823737
-0.489149
-0.454844
-0.389687
-0.305131
-0.210396
-0.108877
-0.00165611
0.110342
0.225938
0.343599
0.445705
0.51698
0.529352
0.42216
0.232645
0.0239926
-0.180155
-0.352565
-0.419826
-0.502613
-0.51394
-0.479562
-0.414122
-0.329366
-0.234576
-0.133269
-0.0266504
0.0841267
0.197527
0.311381
0.407726
0.468646
0.456898
0.316086
0.134028
-0.0552924
-0.216993
-0.308775
-0.33234
-0.348603
-0.540325
-0.505813
-0.440195
-0.3554
-0.260737
-0.159807
-0.0540242
0.0552415
0.166049
0.275467
0.36555
0.413293
0.383813
0.217588
0.0448378
-0.118985
-0.244373
-0.282416
-0.29581
-0.297108
-0.568511
-0.53378
-0.467978
-0.383232
-0.288831
-0.188497
-0.0837922
0.0236402
0.131438
0.235848
0.318842
0.352594
0.30601
0.12613
-0.0373864
-0.183599
-0.259279
-0.275794
-0.277332
-0.277234
-0.598567
-0.563531
-0.497498
-0.412862
-0.318873
-0.219323
-0.115955
-0.0106894
0.0937011
0.192594
0.267574
0.290314
0.207969
0.0419392
-0.113313
-0.233372
-0.267686
-0.267412
-0.267178
-0.266658
-0.630218
-0.594898
-0.528656
-0.444202
-0.350773
-0.252228
-0.150475
-0.0477154
0.0528756
0.145811
0.212526
0.218668
0.115941
-0.0364012
-0.173047
-0.249292
-0.258558
-0.260365
-0.260753
-0.260514
-0.662919
-0.627436
-0.561202
-0.477029
-0.384343
-0.28705
-0.187194
-0.0872956
0.0091455
0.0958038
0.15424
0.144301
0.0313691
-0.104069
-0.217237
-0.246061
-0.256105
-0.257419
-0.256889
-0.256435
-0.696227
-0.660621
-0.594701
-0.510954
-0.419238
-0.323461
-0.225827
-0.129128
-0.037202
0.0432422
0.091988
0.0725754
-0.0504364
-0.164343
-0.244863
-0.267643
-0.257547
-0.256181
-0.255984
-0.255495
-0.729271
-0.693763
-0.628295
-0.545388
-0.454916
-0.360985
-0.265916
-0.172719
-0.0856863
-0.0111369
0.0277938
0.00740999
-0.128037
-0.224911
-0.250791
-0.260041
-0.260748
-0.257623
-0.255947
-0.255547
-0.760505
-0.725695
-0.661054
-0.579414
-0.490611
-0.398912
-0.306794
-0.217383
-0.135459
-0.0666728
-0.0323735
-0.0615169
-0.192677
-0.315048
-0.304235
-0.299206
-0.2767
-0.258222
-0.251563
-0.249869
-0.788402
-0.754642
-0.691851
-0.611875
-0.525282
-0.436297
-0.347569
-0.262264
-0.185344
-0.122514
-0.0881317
-0.125252
-0.230656
-0.410572
-0.450475
-0.365719
-0.299861
-0.268012
-0.254439
-0.249884
-0.810906
-0.778845
-0.71872
-0.641368
-0.55764
-0.47197
-0.387116
-0.306302
-0.23421
-0.177368
-0.143194
-0.167075
-0.203718
-0.356711
-0.536139
-0.378259
-0.343793
-0.330145
-0.314351
-0.306035
-0.825842
-0.796417
-0.73976
-0.66607
-0.586146
-0.504553
-0.424162
-0.348192
-0.281044
-0.229924
-0.195137
-0.189243
-0.0868811
0.0723497
-0.00734712
-0.229969
-0.369073
-0.400556
-0.40012
-0.400535
-0.830605
-0.805163
-0.753099
-0.684112
-0.609068
-0.532512
-0.457222
-0.386514
-0.324773
-0.279214
-0.239435
-0.241139
-0.115596
0.179836
-0.0242634
-0.292417
-0.428021
-0.461894
-0.46923
-0.472929
-0.823303
-0.80264
-0.756599
-0.693871
-0.624816
-0.554152
-0.484627
-0.419652
-0.36417
-0.324689
-0.288348
-0.411585
-0.643572
-0.901803
-0.889948
-0.727129
-0.654637
-0.639756
-0.638444
-0.639764
-0.80164
-0.785742
-0.748457
-0.694045
-0.632209
-0.568172
-0.504682
-0.445448
-0.396434
-0.366265
-0.367373
-0.616508
-1.02536
-1.3781
-1.24163
-0.951779
-0.864952
-0.822916
-0.802167
-0.796068
-0.767524
-0.757053
-0.729005
-0.684593
-0.630952
-0.573837
-0.516058
-0.461549
-0.416588
-0.392755
-0.4052
-0.577857
-0.682441
-0.665346
-0.481165
-0.602314
-0.747117
-0.780839
-0.744572
-0.752877
-0.726667
-0.720722
-0.702516
-0.667846
-0.622489
-0.571393
-0.518175
-0.4659
-0.421209
-0.392894
-0.405906
-0.487327
-0.693035
-1.02811
-1.42738
-1.72839
-1.7141
-1.46802
-1.21527
-1.12143
-0.687555
-0.684171
-0.674539
-0.648721
-0.609626
-0.562782
-0.511695
-0.458933
-0.408663
-0.373118
-0.380885
-0.460978
-0.632712
-0.870895
-1.06368
-1.23027
-1.24124
-1.10852
-0.9399
-0.852836
-0.656969
-0.654931
-0.650132
-0.631793
-0.597241
-0.551474
-0.499346
-0.441664
-0.383241
-0.326437
-0.286527
-0.244894
-0.126473
0.0717889
0.29263
0.504608
0.708745
0.853259
0.951905
0.998401
-0.631142
-0.630324
-0.62907
-0.618629
-0.58814
-0.541429
-0.48475
-0.41966
-0.347226
-0.267371
-0.181218
-0.0564633
0.210717
0.618731
1.04755
1.43114
1.71463
1.89952
1.99455
2.02318
-0.614277
-0.613718
-0.613456
-0.608433
-0.582487
-0.533805
-0.470736
-0.396898
-0.311258
-0.215685
-0.103323
0.0139153
0.330297
0.77533
1.24629
1.67843
2.00776
2.20698
2.30131
2.32959
-0.602782
-0.602376
-0.602115
-0.600977
-0.580064
-0.529407
-0.459352
-0.377715
-0.284244
-0.179022
-0.0671579
0.0429212
0.272133
0.702408
1.1537
1.55971
1.86388
2.0424
2.12459
2.14833
-0.595585
-0.59416
-0.592505
-0.593748
-0.580064
-0.527831
-0.450727
-0.361888
-0.265007
-0.156521
-0.0451334
0.0735287
0.240656
0.597483
0.965887
1.28198
1.52438
1.66852
1.73564
1.7546
-0.601421
-0.599651
-0.599912
-0.603157
-0.588667
-0.527391
-0.440694
-0.345346
-0.246549
-0.138912
-0.0305001
0.0811629
0.205676
0.434646
0.727337
0.966191
1.15297
1.2632
1.3118
1.32444
-0.615627
-0.617946
-0.625336
-0.627138
-0.600169
-0.520535
-0.421783
-0.322855
-0.226416
-0.125653
-0.028873
0.0632588
0.150234
0.301666
0.503802
0.680386
0.819222
0.90183
0.938725
0.94679
-0.59131
-0.599247
-0.611248
-0.609858
-0.570199
-0.481802
-0.382791
-0.289673
-0.203052
-0.116251
-0.0343192
0.0390148
0.108369
0.1988
0.340943
0.464298
0.556643
0.611021
0.632182
0.635462
-0.466708
-0.475384
-0.485332
-0.482638
-0.449462
-0.384774
-0.312636
-0.241151
-0.172786
-0.10363
-0.0384188
0.015737
0.0648902
0.117436
0.206536
0.291078
0.3522
0.390354
0.405095
0.406081
-0.27487
-0.27969
-0.286475
-0.289141
-0.278144
-0.252563
-0.218569
-0.179217
-0.135785
-0.0876672
-0.0436115
-0.00877161
0.0210205
0.0551472
0.111722
0.166486
0.205295
0.227036
0.235077
0.234569
-0.100551
-0.102958
-0.108848
-0.118422
-0.127997
-0.133094
-0.130058
-0.118427
-0.0984616
-0.0717012
-0.046188
-0.0272786
-0.0125385
0.00711398
0.0429479
0.0776557
0.101538
0.112871
0.116539
0.115417
0.00899764
0.00766751
0.00216957
-0.0109541
-0.0308336
-0.0502504
-0.06378
-0.0691183
-0.065645
-0.0549136
-0.0441522
-0.0391565
-0.0373714
-0.0238538
0.000329922
0.0210331
0.0327345
0.0373266
0.0381437
0.0371172
0.058356
0.0573289
0.0524636
0.0400548
0.0201597
-0.0016644
-0.0206099
-0.033692
-0.0397533
-0.0398288
-0.0397144
-0.0439089
-0.0487202
-0.0385163
-0.0215007
-0.0107263
-0.00627686
-0.00581281
-0.0064527
-0.00733807
0.0720889
0.0713203
0.067615
0.0579372
0.0418826
0.0230605
0.00496951
-0.00991531
-0.0201012
-0.0259587
-0.031479
-0.0398656
-0.0470676
-0.0393216
-0.0284857
-0.023114
-0.0225638
-0.0239264
-0.0249173
-0.0256353
0.0692315
0.06871
0.0661742
0.0594085
0.0478056
0.0333925
0.0184672
0.0050543
-0.00552214
-0.0130938
-0.0197597
-0.0280607
-0.0338621
-0.0259991
-0.019808
-0.0189557
-0.0207601
-0.0229406
-0.02396
-0.0246011
0.0600026
0.0596682
0.0580557
0.0536839
0.0459032
0.0357309
0.024577
0.0139636
0.00505592
-0.0012914
-0.00550863
-0.00967899
-0.0106676
-0.00366757
-0.00120534
-0.00327414
-0.00631746
-0.00852337
-0.00947403
-0.0101244
0.0492822
0.0490675
0.0481032
0.0454822
0.0406333
0.0339708
0.0263066
0.0188036
0.0125672
0.00907164
0.00928702
0.0118882
0.0161685
0.0219495
0.0213959
0.0179903
0.0149345
0.0133549
0.0126474
0.0119592
0.0392666
0.0391207
0.0385773
0.0371364
0.0343547
0.0303121
0.0254579
0.0206638
0.0170456
0.0165953
0.0222004
0.0328058
0.0443635
0.048404
0.0440836
0.0397566
0.0377922
0.0372835
0.0368946
0.0360217
0.0307586
0.0306518
0.0303516
0.0296307
0.028177
0.0259005
0.0230648
0.0202866
0.0187751
0.0208484
0.030235
0.0468642
0.0632765
0.0643447
0.0580704
0.0546979
0.0544655
0.0555941
0.0555816
0.0545701
0.0238503
0.0237666
0.0235894
0.0232407
0.0225297
0.0212942
0.0196766
0.0180894
0.0175558
0.0203738
0.0306552
0.0486406
0.0651896
0.0646996
0.0597001
0.0591229
0.0611091
0.0633088
0.063443
0.0622764
0.0183241
0.0182513
0.0181153
0.0179075
0.0175091
0.0167713
0.0156708
0.0144876
0.0138651
0.0154378
0.0225129
0.0361828
0.0487562
0.0470563
0.0445313
0.0471317
0.0525957
0.0562554
0.0565019
0.0553417
0.0138287
0.0137589
0.0136251
0.013421
0.0131407
0.0125045
0.0115047
0.0101648
0.00849497
0.00704061
0.00729301
0.0105622
0.0140579
0.0118156
0.0152289
0.0233413
0.0308933
0.0349142
0.035146
0.0341427
0.0100646
0.00999541
0.00987561
0.00966792
0.0093057
0.00868899
0.00758936
0.00576984
0.00286238
-0.00245751
-0.0109252
-0.0221765
-0.0330714
-0.0337447
-0.0215668
-0.00780688
0.00121838
0.00455033
0.00497733
0.00438004
0.00695983
0.00689378
0.00677374
0.00648512
0.00610591
0.00548116
0.00434458
0.00235656
-0.00142195
-0.00946021
-0.0261703
-0.0517373
-0.0758534
-0.0710579
-0.0515531
-0.0343929
-0.0260873
-0.0232486
-0.0226034
-0.0228378
0.00438247
0.00431077
0.00418831
0.00394972
0.00357392
0.00300879
0.00198545
5.53868e-05
-0.00381307
-0.0119646
-0.0305432
-0.0629837
-0.0907863
-0.0825108
-0.0606254
-0.046676
-0.040973
-0.039397
-0.0385721
-0.0383946
0.00223131
0.00216398
0.00212288
0.00200097
0.00170073
0.0013137
0.000652735
-0.000739255
-0.00344715
-0.00958386
-0.0233951
-0.0488827
-0.0689305
-0.0580228
-0.0429292
-0.0368566
-0.0350228
-0.0347885
-0.0340166
-0.0336617
0.000618284
0.000560096
0.000499466
0.000478831
0.000471224
0.000271236
3.0945e-06
-7.49108e-05
-0.000322369
-0.000989579
-0.00269697
-0.00714527
-0.0150293
-0.0145711
-0.0131216
-0.0131706
-0.0135718
-0.0124069
-0.0102069
-0.00902966
-0.0391209
0.130514
0.328951
0.501541
0.63999
0.7497
0.840755
0.917916
0.952586
0.929275
0.269729
0.392339
0.524159
0.638327
0.734779
0.814793
0.879539
0.925387
0.948355
0.960364
0.492268
0.576369
0.666424
0.746202
0.814847
0.872282
0.91792
0.951233
0.975268
0.993198
0.655278
0.715227
0.778216
0.83605
0.88648
0.929275
0.964397
0.992393
1.01539
1.03366
0.782306
0.826072
0.872615
0.916949
0.956135
0.990336
1.01959
1.04392
1.06443
1.08225
0.887574
0.920849
0.959341
0.99525
1.02819
1.0577
1.08347
1.10511
1.12305
1.14039
0.980737
1.00966
1.04389
1.07626
1.10641
1.13375
1.15763
1.17745
1.19302
1.2101
1.06971
1.09905
1.13323
1.16542
1.19515
1.22184
1.2448
1.26335
1.27677
1.2938
1.16526
1.19856
1.2353
1.26897
1.2991
1.32535
1.34737
1.36469
1.37659
1.39399
1.2804
1.31829
1.35699
1.39129
1.42069
1.44548
1.46589
1.48181
1.4933
1.51138
1.42542
1.46401
1.50019
1.53091
1.55662
1.57875
1.59783
1.61338
1.62582
1.64382
1.60058
1.63221
1.65841
1.68089
1.70088
1.71962
1.73735
1.75384
1.7692
1.78727
1.78922
1.80643
1.82148
1.83773
1.85365
1.86819
1.8814
1.89533
1.91288
1.93304
1.97095
1.9805
1.99205
2.00287
2.01216
2.02174
2.03254
2.04391
2.05528
2.07063
2.17822
2.18188
2.16694
2.15212
2.14585
2.15153
2.17002
2.20033
2.23251
2.25917
2.48453
2.34966
2.27304
2.23067
2.21325
2.21721
2.24461
2.30103
2.40365
2.62801
0.776353
0.774222
0.769737
0.761108
0.748877
0.73674
0.726498
0.718583
0.712936
0.709644
0.709239
0.711928
0.716992
0.724184
0.733549
0.745073
0.757713
0.768739
0.774847
0.777898
0.700817
0.706662
0.712996
0.717483
0.719944
0.719609
0.716858
0.713027
0.709486
0.707184
0.706986
0.70913
0.712749
0.717005
0.720787
0.722653
0.721703
0.718211
0.713042
0.706419
0.692415
0.694711
0.698111
0.7011
0.703166
0.70465
0.705388
0.705047
0.70399
0.703061
0.703177
0.704545
0.706312
0.707579
0.707729
0.706817
0.705251
0.702902
0.69963
0.696706
0.686933
0.68802
0.689848
0.692219
0.694232
0.695645
0.696645
0.697368
0.697731
0.697902
0.698326
0.699066
0.699607
0.699627
0.699178
0.698302
0.696811
0.69471
0.692612
0.691226
0.681769
0.682432
0.683536
0.685232
0.687001
0.688616
0.689888
0.690871
0.691709
0.692439
0.69309
0.69356
0.693685
0.693461
0.692849
0.691758
0.690302
0.688737
0.687404
0.68662
0.676843
0.677303
0.678085
0.679374
0.680847
0.682345
0.683783
0.685044
0.686128
0.687112
0.687933
0.688402
0.688462
0.688116
0.687361
0.686324
0.685162
0.684
0.683067
0.682547
0.672077
0.672422
0.673029
0.674087
0.675365
0.676717
0.678126
0.679529
0.680842
0.682037
0.683034
0.683604
0.683673
0.683307
0.682633
0.681796
0.680895
0.679993
0.679298
0.678916
0.667419
0.667688
0.668177
0.669076
0.670228
0.6715
0.67286
0.674301
0.675772
0.677192
0.678403
0.679122
0.679287
0.67905
0.678561
0.677922
0.67721
0.676522
0.676004
0.675712
0.662794
0.663007
0.663413
0.664202
0.665273
0.666494
0.667839
0.669317
0.670905
0.67254
0.674006
0.674949
0.675318
0.675291
0.675006
0.674563
0.674036
0.673527
0.673143
0.672914
0.658117
0.658288
0.658636
0.659352
0.660377
0.661573
0.662939
0.664488
0.666213
0.668074
0.669845
0.671098
0.671749
0.671972
0.671906
0.671663
0.671324
0.670969
0.670696
0.670513
0.653309
0.653447
0.653752
0.654423
0.655431
0.656649
0.658074
0.659735
0.661646
0.663781
0.665922
0.667571
0.668563
0.669073
0.669253
0.669216
0.669053
0.668845
0.668663
0.668517
0.64829
0.648401
0.648678
0.649331
0.650356
0.65164
0.65317
0.654999
0.657167
0.659662
0.662267
0.664385
0.665769
0.666604
0.667052
0.667235
0.667251
0.667181
0.667077
0.66696
0.642976
0.643062
0.643322
0.64398
0.64506
0.646452
0.648139
0.650201
0.652702
0.655657
0.658836
0.661518
0.663366
0.664577
0.665325
0.665756
0.665963
0.666026
0.665991
0.665897
0.637272
0.637337
0.637588
0.638273
0.639444
0.64099
0.642895
0.645265
0.648187
0.651716
0.655601
0.658967
0.661374
0.663027
0.664124
0.664831
0.665243
0.665443
0.665474
0.6654
0.631071
0.631114
0.631365
0.632097
0.633396
0.635147
0.637338
0.640099
0.643553
0.647789
0.652538
0.656746
0.659831
0.662016
0.663515
0.664529
0.665188
0.665535
0.66563
0.665573
0.624234
0.624253
0.624506
0.62531
0.626779
0.628797
0.631361
0.634633
0.638771
0.643897
0.649707
0.654924
0.658808
0.661614
0.663588
0.664961
0.665896
0.666404
0.666565
0.666524
0.616577
0.616586
0.616843
0.617733
0.619426
0.621779
0.624815
0.628728
0.633723
0.639963
0.647079
0.653508
0.658346
0.661893
0.664444
0.666262
0.667505
0.668189
0.66842
0.668393
0.60783
0.607805
0.608115
0.609139
0.611102
0.61388
0.61752
0.622238
0.628292
0.635887
0.644591
0.652505
0.658509
0.662947
0.666181
0.668537
0.670155
0.671047
0.671354
0.671339
0.59771
0.59766
0.598011
0.599214
0.601521
0.604852
0.609259
0.615011
0.622427
0.631732
0.64238
0.652063
0.659422
0.664908
0.668963
0.671951
0.67401
0.675137
0.675527
0.675523
0.585751
0.585672
0.586098
0.587539
0.590301
0.594352
0.599761
0.606848
0.615983
0.627411
0.640417
0.652203
0.661177
0.667914
0.672942
0.676669
0.679251
0.680652
0.681128
0.68113
0.571329
0.571222
0.571764
0.573526
0.576886
0.581895
0.588626
0.597453
0.608783
0.622838
0.638694
0.652976
0.663839
0.672031
0.678215
0.682832
0.686036
0.687746
0.688308
0.688308
0.553464
0.553332
0.554067
0.556317
0.560539
0.566906
0.575476
0.586665
0.600871
0.618226
0.637476
0.654609
0.6676
0.677438
0.684937
0.690556
0.694455
0.696494
0.697133
0.697121
0.530683
0.530536
0.531605
0.534631
0.540186
0.548566
0.559755
0.574156
0.592066
0.613449
0.636689
0.657102
0.672491
0.684163
0.693114
0.699867
0.704515
0.70688
0.707577
0.707541
0.500641
0.50052
0.502205
0.506608
0.514425
0.525993
0.541072
0.559929
0.582626
0.608899
0.636711
0.660708
0.678679
0.69231
0.702803
0.710773
0.716153
0.718792
0.71951
0.719441
0.459207
0.459255
0.462317
0.469603
0.481629
0.498434
0.519296
0.544157
0.572816
0.604807
0.637699
0.665546
0.686216
0.701887
0.714002
0.723202
0.729222
0.73201
0.732693
0.732584
0.398703
0.399906
0.407446
0.421141
0.440877
0.465991
0.494985
0.527505
0.563247
0.60164
0.639953
0.671752
0.695145
0.712833
0.726549
0.736867
0.74338
0.746144
0.74668
0.746531
0.326426
0.328248
0.342674
0.366342
0.396931
0.431855
0.469761
0.510518
0.553931
0.599495
0.644225
0.681076
0.708181
0.728731
0.744545
0.756306
0.763501
0.766377
0.76698
0.76695
0.251735
0.257996
0.279295
0.313134
0.354011
0.398502
0.445313
0.494362
0.545546
0.598415
0.649774
0.691904
0.722888
0.746506
0.764846
0.778305
0.786018
0.788561
0.788974
0.789032
0.190798
0.199293
0.225245
0.266105
0.314928
0.367554
0.422377
0.479178
0.53777
0.597663
0.655369
0.702446
0.737001
0.763317
0.783658
0.798329
0.806322
0.809229
0.810111
0.810245
0.141174
0.150253
0.179752
0.225797
0.280714
0.339884
0.401449
0.465083
0.530418
0.596855
0.660514
0.712205
0.749991
0.778696
0.800838
0.816708
0.825611
0.829157
0.830228
0.830384
0.0994801
0.108834
0.140764
0.190762
0.250643
0.315234
0.382514
0.452099
0.523467
0.595884
0.66505
0.720976
0.761718
0.792589
0.816309
0.833166
0.842847
0.846867
0.848125
0.848283
0.0633129
0.0727865
0.106548
0.159717
0.223669
0.292855
0.36511
0.439954
0.516751
0.594633
0.66887
0.728705
0.772126
0.804825
0.82967
0.847233
0.857625
0.86206
0.863404
0.863576
0.0310208
0.0405465
0.0757094
0.131558
0.198927
0.272062
0.348709
0.428268
0.510015
0.592945
0.671937
0.735428
0.781264
0.815466
0.841109
0.859178
0.870001
0.874796
0.876266
0.876462
0.00135731
0.0109425
0.0472557
0.105423
0.175748
0.252344
0.332887
0.416711
0.503014
0.590696
0.674222
0.741204
0.789271
0.824782
0.851098
0.869566
0.880674
0.885757
0.887294
0.887483
-0.0264845
-0.016837
0.0205102
0.0806737
0.153633
0.233314
0.317343
0.405046
0.495583
0.587773
0.675703
0.746093
0.7963
0.833002
0.85991
0.878682
0.889965
0.895197
0.896745
0.896941
-0.0530138
-0.0432916
-0.00498517
0.056887
0.132251
0.214692
0.30187
0.393121
0.4876
0.584099
0.676355
0.750148
0.802482
0.840371
0.867873
0.886938
0.898356
0.903624
0.905172
0.905275
-0.0786668
-0.0687719
-0.0296176
0.0338862
0.111381
0.196299
0.28633
0.380827
0.478991
0.579615
0.67614
0.753394
0.807939
0.847095
0.875251
0.89462
0.906145
0.911381
0.912877
0.912969
-0.103622
-0.0934999
-0.0535942
0.0114672
0.0908792
0.178029
0.270639
0.36811
0.469702
0.574267
0.675016
0.755835
0.812749
0.853312
0.882217
0.901913
0.91352
0.918688
0.920087
0.920158
-0.127938
-0.117606
-0.076918
-0.0104715
0.0706708
0.159834
0.254767
0.354946
0.459709
0.568008
0.672928
0.757456
0.816961
0.859125
0.888882
0.908909
0.92052
0.925544
0.926815
0.926826
-0.151746
-0.141118
-0.0996893
-0.0319521
0.0507365
0.141699
0.238715
0.341341
0.449016
0.560823
0.669816
0.758199
0.820582
0.864616
0.895357
0.915689
0.927205
0.931995
0.933075
0.933018
-0.17498
-0.164075
-0.121926
-0.0530015
0.0310886
0.123652
0.222524
0.32734
0.43765
0.552701
0.665626
0.757982
0.823576
0.869837
0.90176
0.922366
0.933602
0.938001
0.938861
0.938747
-0.197686
-0.186477
-0.143569
-0.073588
0.0117564
0.105732
0.206242
0.313006
0.425665
0.54366
0.660315
0.756712
0.82585
0.874798
0.908241
0.929115
0.939809
0.943583
0.944159
0.943992
-0.219686
-0.208245
-0.164595
-0.0936574
-0.00720624
0.0880121
0.189938
0.298409
0.413132
0.533758
0.653862
0.754291
0.827271
0.879437
0.914956
0.93627
0.946078
0.94879
0.948936
0.948722
-0.241119
-0.229333
-0.184989
-0.113186
-0.0257635
0.0705358
0.173706
0.28363
0.400139
0.523074
0.646279
0.750614
0.827654
0.883574
0.92196
0.944335
0.953073
0.953982
0.953222
0.952925
-0.261822
-0.249722
-0.204721
-0.132129
-0.043835
0.0533888
0.157626
0.268789
0.386795
0.511675
0.637612
0.74559
0.826787
0.886891
0.929033
0.953752
0.962113
0.960584
0.957612
0.95637
-0.281858
-0.269456
-0.223742
-0.150434
-0.0613844
0.0366403
0.141782
0.253965
0.37321
0.499701
0.627941
0.739141
0.824458
0.888946
0.935494
0.964247
0.97458
0.972032
0.964989
0.955738
-0.30115
-0.2885
-0.242152
-0.168264
-0.078629
0.0200034
0.125827
0.238744
0.35892
0.486631
0.616711
0.730667
0.820106
0.88921
0.940356
0.974594
0.990341
0.989671
0.979409
0.972139
-0.319652
-0.306783
-0.259946
-0.185589
-0.0955681
0.00347862
0.109777
0.223107
0.343882
0.472354
0.603745
0.719819
0.813021
0.886903
0.94134
0.979596
0.998032
1.00248
0.965029
0.912343
-0.337076
-0.323526
-0.277005