/*--------------------------------*- C++ -*----------------------------------*\
  =========                 |
  \\      /  F ield         | OpenFOAM: The Open Source CFD Toolbox
   \\    /   O peration     | Website:  https://openfoam.org
    \\  /    A nd           | Version:  9
     \\/     M anipulation  |
\*---------------------------------------------------------------------------*/
FoamFile
{
    format      ascii;
    class       surfaceScalarField;
    location    "56";
    object      phi;
}
// * * * * * * * * * * * * * * * * * * * * * * * * * * * * * * * * * * * * * //

dimensions      [0 3 -1 0 0 0 0];

internalField   nonuniform List<scalar> 
17370
(
-0.0916068
0.0960097
0.284608
-0.0775953
0.059421
0.36495
-0.0430439
0.0316251
0.427587
-0.0223225
0.016271
0.505303
-0.0116787
0.00880505
0.602276
-0.00659355
0.0051082
0.720543
-0.00387096
0.00299044
0.863787
-0.00221738
0.00163921
1.03603
-0.00110783
0.000686916
1.24292
-0.000275781
-0.00011783
1.49158
0.00050601
-0.000919348
1.4916
0.00132342
-0.00182807
1.2432
0.00237899
-0.00312272
1.03638
0.00398063
-0.00519997
0.864126
0.00667449
-0.00887653
0.72126
0.01174
-0.016318
0.603793
0.0223549
-0.0316418
0.508726
0.0430434
-0.0594102
0.432535
0.0775887
-0.0960036
0.36519
0.0916209
0.19739
-0.127091
0.0880217
0.0390688
-0.364355
0.354029
-0.0714764
0.0818025
-0.446654
0.454253
-0.0791719
0.0715725
-0.521011
0.529108
-0.063721
0.0556241
-0.612991
0.620759
-0.0482382
0.0404696
-0.727164
0.733685
-0.033858
0.027337
-0.86758
0.872433
-0.0221326
0.0172796
-1.03857
1.04191
-0.0135804
0.0102402
-1.24472
1.24713
-0.00768887
0.0052824
-1.49284
1.49486
-0.00331724
0.00130111
-1.49269
1.49451
0.000519775
-0.00234096
-1.24411
1.24602
0.00431492
-0.00622658
-1.03761
1.04009
0.00856286
-0.0110431
-0.866187
0.869815
0.0143026
-0.0179315
-0.724594
0.729748
0.0227176
-0.0278716
-0.609064
0.615633
0.034345
-0.0409144
-0.515123
0.522459
0.048634
-0.0559694
-0.43988
0.447658
0.0639914
-0.0717694
-0.374707
0.377355
0.0792648
-0.0819127
-0.256897
0.224435
0.0715625
-0.0391008
-0.0688101
0.059198
0.00961208
-0.0521091
0.0589361
-0.374837
0.36801
-0.0580895
0.0542483
-0.453946
0.457787
-0.0487624
0.044204
-0.527617
0.532176
-0.0396551
0.0357597
-0.620802
0.624697
-0.0315467
0.0275509
-0.73466
0.738656
-0.0231927
0.0193038
-0.873956
0.877845
-0.0152568
0.0117982
-1.04336
1.04682
-0.00827696
0.00524263
-1.24865
1.25169
-0.00203284
-0.000950365
-1.49695
1.49993
0.00391167
-0.00706088
-1.49742
1.50057
0.0100066
-0.0134088
-1.25006
1.25347
0.016747
-0.0206562
-1.04565
1.04956
0.0244229
-0.0286591
-0.877135
0.881371
0.0325567
-0.0366737
-0.73898
0.743097
0.0404901
-0.0449615
-0.625968
0.630439
0.0494552
-0.0548778
-0.535014
0.540437
0.0586457
-0.0594053
-0.458074
0.458833
0.0524574
-0.032067
-0.336761
0.31637
0.00967415
-0.0686607
0.0589866
-0.0534091
0.0492977
0.00411135
-0.0332424
0.0436657
-0.358564
0.348141
-0.0473416
0.046755
-0.459581
0.460168
-0.0438271
0.0406152
-0.536134
0.539346
-0.0369389
0.0335847
-0.628398
0.631752
-0.0299511
0.0267096
-0.742037
0.745278
-0.0232554
0.0200561
-0.88134
0.884539
-0.0164608
0.0131069
-1.05025
1.0536
-0.00940527
0.00599826
-1.25495
1.25835
-0.00220499
-0.00141343
-1.50328
1.5069
0.0050007
-0.00870308
-1.50406
1.50777
0.0119858
-0.0155189
-1.25702
1.26056
0.0187023
-0.0221023
-1.05326
1.05666
0.0251281
-0.0284079
-0.884978
0.888257
0.0315078
-0.0350026
-0.746778
0.750273
0.0382401
-0.0417955
-0.634557
0.638113
0.0449028
-0.0477132
-0.544578
0.547388
0.0481782
-0.0443333
-0.456947
0.453102
0.0337024
-0.0163836
-0.297049
0.27973
0.00417989
-0.0531355
0.0489556
-0.0461287
0.0435735
0.00255518
-0.0230449
0.0333932
-0.337551
0.327203
-0.0391259
0.040074
-0.459919
0.458971
-0.0388221
0.0364937
-0.542004
0.544332
-0.0338517
0.0313057
-0.634722
0.637268
-0.0283292
0.025481
-0.748365
0.751213
-0.0222421
0.0192266
-0.887595
0.890611
-0.0158731
0.0127363
-1.05678
1.05992
-0.00917644
0.00577392
-1.26175
1.26515
-0.00186149
-0.00193734
-1.51063
1.51443
0.00569622
-0.00948702
-1.51155
1.51534
0.0127258
-0.0160652
-1.26401
1.26735
0.018978
-0.0220753
-1.05986
1.06296
0.0248603
-0.027863
-0.891451
0.894453
0.0305166
-0.033302
-0.753451
0.756237
0.0356891
-0.0381707
-0.641063
0.643545
0.0403616
-0.0414317
-0.54922
0.55029
0.0402948
-0.0342866
-0.447973
0.441965
0.0236355
-0.0103805
-0.264537
0.251281
0.00264023
-0.04571
0.0430698
-0.0414557
0.0396559
0.00179981
-0.0169408
0.0262237
-0.317336
0.308053
-0.0328171
0.0349353
-0.457412
0.455294
-0.0344989
0.0327987
-0.546364
0.548064
-0.0305701
0.0284417
-0.639582
0.641711
-0.0260033
0.0236233
-0.753816
0.756196
-0.0208057
0.018056
-0.893469
0.896219
-0.0148678
0.0118296
-1.06296
1.066
-0.00836074
0.00504216
-1.26847
1.27179
-0.00120005
-0.0025487
-1.5182
1.52194
0.00624622
-0.00993508
-1.51908
1.52277
0.0130459
-0.0162346
-1.27062
1.27381
0.0189874
-0.0218468
-1.06598
1.06884
0.0242985
-0.0268104
-0.897235
0.899747
0.0289396
-0.0311331
-0.758675
0.760869
0.0330596
-0.0350819
-0.645767
0.647789
0.0365821
-0.0367712
-0.550866
0.551056
0.0343628
-0.0273661
-0.435367
0.42837
0.0176776
-0.00748175
-0.239698
0.229502
0.00190385
-0.0408584
0.0389545
-0.0381069
0.036756
0.00135098
-0.0129412
0.0209369
-0.299417
0.291421
-0.0277007
0.0306196
-0.452743
0.449824
-0.0308236
0.0296967
-0.549505
0.550632
-0.0276956
0.0257672
-0.643773
0.645701
-0.0235528
0.0214083
-0.758444
0.760588
-0.0188963
0.016424
-0.898771
0.901243
-0.0134998
0.0106408
-1.0689
1.07176
-0.00730759
0.00408841
-1.27503
1.27825
-0.000354041
-0.00327717
-1.52561
1.52924
0.00684391
-0.0103866
-1.52638
1.52992
0.0133475
-0.0163322
-1.27692
1.27991
0.0188345
-0.0213463
-1.07156
1.07407
0.023445
-0.0255724
-0.902057
0.904185
0.027399
-0.0293005
-0.762909
0.764811
0.0309728
-0.0327275
-0.649652
0.651407
0.0335622
-0.0330134
-0.550877
0.550328
0.0296799
-0.0223644
-0.421156
0.41384
0.0138485
-0.00578139
-0.220472
0.212405
0.00147773
-0.0372913
0.0358135
-0.035576
0.0345355
0.00104046
-0.010116
0.0168862
-0.284062
0.277292
-0.0234003
0.0267827
-0.446652
0.44327
-0.0275653
0.026872
-0.551536
0.552229
-0.0251056
0.0233216
-0.6476
0.649384
-0.0212581
0.0192502
-0.762665
0.764673
-0.0168864
0.0145659
-0.903575
0.905895
-0.0118357
0.00915813
-1.07446
1.07713
-0.00600751
0.00293198
-1.28135
1.28443
0.000659919
-0.00415359
-1.53278
1.53627
0.00756767
-0.0109227
-1.53336
1.53671
0.0136783
-0.0163974
-1.28277
1.28549
0.0186351
-0.0208563
-1.07646
1.07868
0.0227139
-0.0246007
-0.906208
0.908095
0.0262152
-0.0278913
-0.766599
0.768275
0.0293581
-0.0307844
-0.653012
0.654439
0.0311129
-0.0298422
-0.54943
0.548159
0.0258893
-0.0186501
-0.406538
0.399298
0.0112271
-0.00465452
-0.205156
0.198583
0.00119467
-0.0344946
0.0332999
-0.0336213
0.0328104
0.000810915
-0.00802307
0.0137201
-0.271086
0.265389
-0.0197591
0.0233483
-0.439773
0.436184
-0.024616
0.0241732
-0.55283
0.553273
-0.0226816
0.0210095
-0.651164
0.652836
-0.0190443
0.0171278
-0.766634
0.76855
-0.0148677
0.0126455
-0.908102
0.910324
-0.0100272
0.00746702
-1.07968
1.08224
-0.00446604
0.00153502
-1.28738
1.29031
0.00188849
-0.00521368
-1.53965
1.54297
0.00844323
-0.0115779
-1.53995
1.54308
0.0141166
-0.0165917
-1.2881
1.29058
0.0186143
-0.0206077
-1.08082
1.08282
0.0222599
-0.0239316
-0.909897
0.911569
0.0253624
-0.0268489
-0.769857
0.771343
0.0281258
-0.0291797
-0.655652
0.656706
0.029141
-0.0272068
-0.54656
0.544626
0.0228568
-0.0158886
-0.39219
0.385222
0.00938137
-0.00387383
-0.192595
0.187087
0.000998471
-0.0322169
0.0312184
-0.0320971
0.0314632
0.00063391
-0.00641249
0.0111928
-0.260178
0.255398
-0.0166493
0.0202485
-0.432589
0.42899
-0.0218484
0.0216356
-0.553638
0.553851
-0.0203815
0.0187736
-0.654527
0.656135
-0.0168688
0.0150063
-0.770437
0.772299
-0.012811
0.010654
-0.912438
0.914595
-0.00811374
0.00563266
-1.08468
1.08716
-0.00273339
-7.65518e-05
-1.29312
1.29593
0.00335034
-0.00650461
-1.54618
1.54933
0.00953922
-0.0124552
-1.54608
1.549
0.0147966
-0.0170588
-1.29296
1.29522
0.0188868
-0.0206657
-1.08475
1.08653
0.0221253
-0.0235995
-0.913171
0.914645
0.0248657
-0.0261805
-0.772749
0.774064
0.0273119
-0.0279552
-0.657536
0.658179
0.0275518
-0.0250638
-0.54243
0.539942
0.020475
-0.0138479
-0.378436
0.371809
0.0080689
-0.00332643
-0.182002
0.17726
0.000861608
-0.0303
0.0294384
-0.0309086
0.0304177
0.00049095
-0.00511906
0.00910944
-0.251038
0.247047
-0.0139377
0.0173973
-0.425467
0.422008
-0.0191898
0.0191744
-0.554008
0.554023
-0.0181248
0.0165573
-0.657791
0.659358
-0.0146819
0.01284
-0.774145
0.775987
-0.0106682
0.0085398
-0.916651
0.91878
-0.00604333
0.00361601
-1.08952
1.09195
-0.000790369
-0.00193664
-1.29864
1.30136
0.00507982
-0.00807895
-1.55237
1.55536
0.0109334
-0.0136453
-1.55179
1.5545
0.0157968
-0.0178476
-1.29739
1.29944
0.0194814
-0.02105
-1.08826
1.08983
0.0223277
-0.0236238
-0.91606
0.917356
0.024744
-0.0259019
-0.775302
0.77646
0.0268469
-0.027119
-0.658615
0.658887
0.0263264
-0.0233738
-0.537234
0.534281
0.0186488
-0.0123597
-0.365371
0.359082
0.00714108
-0.00294624
-0.172826
0.168631
0.000768073
-0.0286346
0.0278665
-0.029994
0.0296236
0.000370413
-0.00403815
0.00733557
-0.243427
0.240129
-0.0115236
0.0147339
-0.418687
0.415477
-0.0165931
0.0167376
-0.55401
0.553865
-0.0157767
0.0142861
-0.660967
0.662457
-0.0124107
0.0105573
-0.777824
0.779677
-0.00837395
0.00624261
-0.92081
0.922941
-0.00375608
0.00135031
-1.09427
1.09667
0.00142901
-0.00409231
-1.30399
1.30665
0.00713328
-0.0099986
-1.55825
1.56112
0.012689
-0.015207
-1.55709
1.55961
0.0171748
-0.019021
-1.30139
1.30324
0.0204687
-0.0218341
-1.09137
1.09274
0.0229307
-0.0240476
-0.9186
0.919717
0.0250216
-0.0260149
-0.777543
0.778537
0.0267127
-0.026684
-0.659019
0.658991
0.0254869
-0.0221255
-0.531138
0.527777
0.0173124
-0.0113112
-0.352965
0.346964
0.00650572
-0.00269254
-0.164659
0.160845
0.00070769
-0.0271399
0.0264322
-0.0293129
0.0290497
0.000263236
-0.00309297
0.0057658
-0.237165
0.234492
-0.00931405
0.0121923
-0.412451
0.409573
-0.0140063
0.0142428
-0.553732
0.553495
-0.013334
0.011896
-0.664009
0.665447
-0.0100024
0.00811163
-0.781531
0.783421
-0.00588334
0.00371532
-0.924976
0.927144
-0.00119892
-0.00121702
-1.09897
1.10139
0.00398985
-0.00662072
-1.30922
1.31185
0.00958885
-0.0123464
-1.56388
1.56663
0.0148919
-0.0172264
-1.56201
1.56434
0.0190131
-0.0206536
-1.30499
1.30663
0.0219124
-0.023071
-1.09409
1.09525
0.0239851
-0.0249237
-0.920792
0.921731
0.0257531
-0.0265718
-0.779442
0.780261
0.0269869
-0.0267008
-0.658827
0.658541
0.0250581
-0.0213099
-0.524243
0.520495
0.0164158
-0.010625
-0.341105
0.335315
0.00610286
-0.00253862
-0.157189
0.153625
0.000673555
-0.0257536
0.0250801
-0.0288428
0.0286811
0.000161714
-0.00221952
0.00430693
-0.232131
0.230044
-0.00721071
0.0096864
-0.406919
0.404443
-0.011346
0.0115942
-0.55332
0.553072
-0.0107023
0.00927676
-0.66698
0.668405
-0.00733605
0.00537737
-0.785317
0.787276
-0.00306975
0.000835457
-0.929217
0.931451
0.00174246
-0.00420137
-1.10371
1.10617
0.00699847
-0.00962382
-1.3144
1.31702
0.0125448
-0.0152107
-1.56929
1.57195
0.0176201
-0.0197759
-1.56655
1.56871
0.0213835
-0.0228165
-1.30818
1.30961
0.023879
-0.0248119
-1.09641
1.09735
0.0255215
-0.0262627
-0.922624
0.923365
0.0269384
-0.0276136
-0.780982
0.781657
0.027727
-0.0270833
-0.65803
0.657386
0.025018
-0.0208963
-0.516601
0.51248
0.0159036
-0.0102366
-0.329633
0.323966
0.0058859
-0.00246382
-0.150166
0.146744
0.000660203
-0.0244266
0.0237664
-0.0285751
0.0285158
5.93636e-05
-0.00136917
0.00288665
-0.228259
0.226742
-0.0051329
0.0071438
-0.402225
0.400214
-0.00854774
0.00872749
-0.55294
0.55276
-0.00780757
0.00635915
-0.669963
0.671411
-0.00433444
0.00227848
-0.789242
0.791298
0.000142258
-0.00248203
-0.93359
0.93593
0.00516401
-0.00770318
-1.10854
1.11108
0.0105624
-0.0132116
-1.31956
1.32221
0.0161105
-0.0186992
-1.57452
1.57711
0.020978
-0.0229523
-1.57073
1.57271
0.0243738
-0.0255912
-1.31093
1.31215
0.0264518
-0.0271536
-1.09831
1.09901
0.0276507
-0.0281775
-0.924073
0.9246
0.0286889
-0.029167
-0.782169
0.782647
0.0289938
-0.0279366
-0.656491
0.655434
0.0254143
-0.0208929
-0.508226
0.503705
0.0157536
-0.0101121
-0.318372
0.31273
0.00582947
-0.00245713
-0.143384
0.140012
0.000664907
-0.0231189
0.022454
-0.0285124
0.028562
-4.95365e-05
-0.000494939
0.00143699
-0.225528
0.224586
-0.00299744
0.00447791
-0.398493
0.397013
-0.00552273
0.0055515
-0.552754
0.552726
-0.00455259
0.00303446
-0.673036
0.674555
-0.000900327
-0.00129013
-0.793363
0.795553
0.00387335
-0.0063558
-0.938175
0.940657
0.00918604
-0.0118439
-1.11353
1.11619
0.014805
-0.0175108
-1.32478
1.32749
0.0204178
-0.0229497
-1.57959
1.58213
0.0251082
-0.0269003
-1.57454
1.57634
0.0281282
-0.0291157
-1.31325
1.31424
0.0297551
-0.030208
-1.09975
1.1002
0.0304791
-0.0307769
-0.925098
0.925396
0.0310987
-0.0313082
-0.782843
0.783052
0.0308618
-0.0293002
-0.654108
0.652547
0.0262743
-0.0213107
-0.499067
0.494104
0.0159586
-0.0102356
-0.30712
0.301397
0.00592133
-0.00251303
-0.136664
0.133256
0.000686181
-0.021795
0.0211089
-0.0286665
0.0288315
-0.000164944
0.000426849
-9.06014e-05
-0.223962
0.223625
-0.0007347
0.00160331
-0.395853
0.394984
-0.00218236
0.00196915
-0.552941
0.553154
-0.000827116
-0.000832076
-0.676311
0.677971
0.00313585
-0.00550952
-0.79776
0.800134
0.00830245
-0.0109717
-0.943047
0.945717
0.0139948
-0.0168096
-1.11877
1.12158
0.0199111
-0.0227027
-1.33012
1.33291
0.0256387
-0.0281188
-1.58456
1.58704
0.0301493
-0.0317423
-1.57798
1.57957
0.0327603
-0.0334917
-1.31507
1.31581
0.0338928
-0.0340849
-1.10069
1.10088
0.0341138
-0.0341594
-0.925662
0.925707
0.0342791
-0.0341636
-0.782885
0.78277
0.0333786
-0.0312181
-0.650756
0.648596
0.0276383
-0.0221655
-0.489025
0.483552
0.0165133
-0.0105937
-0.295659
0.28974
0.00615007
-0.00262572
-0.129836
0.126312
0.000722267
-0.0204227
0.0197004
-0.029076
0.0293812
-0.000305208
0.0014198
-0.00173067
-0.223646
0.223957
0.00174555
-0.0015947
-0.39443
0.394279
0.0016107
-0.00216868
-0.553714
0.554272
0.00353354
-0.00538149
-0.67993
0.681778
0.00790931
-0.0105135
-0.80252
0.805124
0.0135704
-0.016479
-0.948296
0.951204
0.0197535
-0.0227764
-1.12432
1.12734
0.0260668
-0.0289784
-1.33563
1.33854
0.0319684
-0.034407
-1.58941
1.59185
0.0363052
-0.0376772
-1.581
1.58237
0.0384622
-0.0389065
-1.31636
1.31681
0.0390419
-0.0389448
-1.10106
1.10096
0.0387049
-0.0384733
-0.925698
0.925467
0.0383837
-0.0378302
-0.782181
0.781628
0.036607
-0.0337804
-0.646269
0.643442
0.0295614
-0.0234803
-0.477953
0.471872
0.0174215
-0.0111808
-0.283757
0.277516
0.00650934
-0.00279147
-0.122742
0.119024
0.000771853
-0.0189734
0.0182016
-0.0297577
0.030239
-0.000481306
0.00270001
-0.00375495
-0.224652
0.225707
0.00463692
-0.00528039
-0.39445
0.395094
0.00601483
-0.00702317
-0.555308
0.556316
0.00868848
-0.0107919
-0.68399
0.686094
0.0136166
-0.0165176
-0.807742
0.810643
0.0199117
-0.0231249
-0.954031
0.957244
0.0267162
-0.0299983
-1.1303
1.13358
0.0335222
-0.0365835
-1.34139
1.34445
0.0396443
-0.0420389
-1.59417
1.59657
0.0437833
-0.0449032
-1.58355
1.58467
0.0453987
-0.0455316
-1.31704
1.31718
0.0453701
-0.044949
-1.1008
1.10037
0.0444122
-0.0438771
-0.925133
0.924598
0.0434797
-0.0424722
-0.780572
0.779564
0.0406918
-0.0370808
-0.640486
0.636875
0.0321103
-0.0252899
-0.465642
0.458821
0.0186949
-0.0119958
-0.27116
0.264461
0.00699493
-0.00300703
-0.115229
0.111241
0.000833657
-0.0174208
0.0165871
-0.0307901
0.0314899
-0.000699793
0.00418776
-0.00613161
-0.22718
0.229123
0.00807461
-0.00961945
-0.396126
0.397671
0.0111775
-0.0127657
-0.557971
0.559559
0.0148795
-0.0173377
-0.688647
0.691105
0.0205675
-0.0238497
-0.813567
0.816849
0.0276643
-0.0312493
-0.960383
0.963969
0.0352212
-0.0388109
-1.13681
1.1404
0.0426066
-0.0458323
-1.34743
1.35066
0.0489532
-0.0512681
-1.59882
1.60114
0.0528078
-0.0536174
-1.58556
1.58637
0.0537709
-0.0535544
-1.31704
1.31683
0.0530616
-0.0522745
-1.09982
1.09903
0.0514051
-0.0505256
-0.923894
0.923015
0.0497331
-0.0482273
-0.778035
0.776529
0.045751
-0.0412114
-0.633164
0.628625
0.0353417
-0.0276149
-0.45182
0.444093
0.0203332
-0.0130286
-0.257591
0.250287
0.00759585
-0.00326533
-0.107146
0.102815
0.000905016
-0.0157416
0.0148366
-0.0322539
0.0332407
-0.000986823
0.00606439
-0.0090598
-0.231487
0.234482
0.0122623
-0.0148641
-0.399723
0.402325
0.0173897
-0.0196813
-0.561994
0.564285
0.0223805
-0.0253177
-0.69411
0.697048
0.0290758
-0.0328371
-0.820167
0.823928
0.0371708
-0.0412098
-0.967489
0.971528
0.0456395
-0.0495881
-1.14393
1.14788
0.053685
-0.0570756
-1.35379
1.35718
0.0602296
-0.062416
-1.60328
1.60546
0.0636856
-0.0641031
-1.58692
1.58734
0.0638583
-0.0632027
-1.31622
1.31557
0.0623227
-0.0611132
-1.09802
1.09681
0.0598662
-0.0586324
-0.921892
0.920658
0.0573187
-0.0552155
-0.774478
0.772375
0.0519091
-0.0462509
-0.623995
0.618337
0.0392945
-0.0304591
-0.436149
0.427313
0.0223205
-0.0142555
-0.242758
0.234693
0.00829107
-0.00355393
-0.0983523
0.0936152
0.000981442
-0.0139191
0.0129377
-0.0342781
0.0356567
-0.00137853
0.00850407
-0.0128572
-0.237887
0.24224
0.0175472
-0.0213859
-0.40561
0.409449
0.0250482
-0.0281899
-0.567695
0.570837
0.0316414
-0.0352032
-0.700642
0.704203
0.0396434
-0.0440121
-0.827733
0.832102
0.0489857
-0.0535684
-0.975519
0.980102
0.058525
-0.0628631
-1.15176
1.1561
0.067257
-0.0707753
-1.36045
1.36397
0.0738844
-0.0758414
-1.60742
1.60938
0.076729
-0.0766412
-1.58743
1.58734
0.0759182
-0.0746996
-1.3144
1.31318
0.0733694
-0.0716858
-1.09526
1.09358
0.0700291
-0.0683655
-0.919076
0.917412
0.0664557
-0.063627
-0.769686
0.766858
0.0592927
-0.0522679
-0.612589
0.605564
0.0439883
-0.0337999
-0.418224
0.408036
0.024614
-0.0156313
-0.226355
0.217372
0.0090454
-0.0038539
-0.0887301
0.0835386
0.00105663
-0.0119465
0.0108898
-0.0370563
0.0389925
-0.00193622
0.0119176
-0.0179776
-0.246922
0.252982
0.0244699
-0.0297634
-0.414279
0.419573
0.0347797
-0.0389676
-0.575467
0.579655
0.0433905
-0.047786
-0.708562
0.712957
0.0531144
-0.0582328
-0.836517
0.841635
0.0639523
-0.0691321
-0.984639
0.989819
0.0746257
-0.0793187
-1.16034
1.16504
0.0839245
-0.0874521
-1.36729
1.37082
0.0903493
-0.0918983
-1.611
1.61255
0.0922268
-0.091466
-1.58683
1.58607
0.0901252
-0.0882442
-1.31138
1.3095
0.0863717
-0.084185
-1.09142
1.08923
0.0820974
-0.0798338
-0.915255
0.912992
0.0773622
-0.0735622
-0.763305
0.759505
0.0679561
-0.0592605
-0.598431
0.589735
0.0493723
-0.0375513
-0.397569
0.385748
0.0271181
-0.0170721
-0.208088
0.198042
0.00979871
-0.00413489
-0.0782004
0.0725366
0.00112094
-0.00983065
0.00870971
-0.0409136
0.0437178
-0.0028042
0.0168504
-0.0251655
-0.2593
0.267615
0.0339002
-0.0409476
-0.426402
0.43345
0.0476129
-0.0530713
-0.585802
0.591261
0.0587366
-0.0642158
-0.718308
0.723787
0.0706448
-0.076632
-0.846781
0.852769
0.0831505
-0.0889097
-0.994928
1.00069
0.094855
-0.0997674
-1.16955
1.17447
0.104379
-0.107688
-1.37402
1.37733
0.110089
-0.110957
-1.61362
1.61448
0.11047
-0.108803
-1.58476
1.5831
0.106667
-0.103987
-1.30696
1.30428
0.10146
-0.0986899
-1.08637
1.0836
0.0961399
-0.0932051
-0.910054
0.907119
0.0900915
-0.0850668
-0.754839
0.749814
0.0778645
-0.0671236
-0.580873
0.570132
0.0553007
-0.041546
-0.373654
0.359899
0.0296701
-0.0184473
-0.187706
0.176483
0.0104627
-0.00435499
-0.0667557
0.060648
0.00116181
-0.00759875
0.00643695
-0.0464242
0.0506917
-0.00426754
0.0245079
-0.0358925
-0.276188
0.287573
0.0475335
-0.0569034
-0.442999
0.452369
0.0655772
-0.0724917
-0.599297
0.606211
0.0796694
-0.086615
-0.730256
0.737201
0.0941928
-0.100968
-0.858722
0.865497
0.10813
-0.114262
-1.00628
1.01241
0.120353
-0.125154
-1.17903
1.18383
0.129367
-0.132073
-1.38011
1.38282
0.133554
-0.133361
-1.61467
1.61448
0.131725
-0.128879
-1.58074
1.5779
0.125764
-0.122126
-1.30085
1.29721
0.118846
-0.1154
-1.07994
1.0765
0.112315
-0.108619
-0.903281
0.899585
0.104624
-0.0979857
-0.743725
0.737086
0.0888008
-0.0755784
-0.559111
0.545889
0.0614753
-0.0455049
-0.345926
0.329956
0.0320273
-0.0195769
-0.165071
0.152621
0.0109206
-0.00446077
-0.0545031
0.0480433
0.00116306
-0.00530368
0.00414062
-0.0546504
0.0619878
-0.00733743
0.0379657
-0.0538212
-0.299728
0.315584
0.0695284
-0.0820969
-0.465718
0.478286
0.0929383
-0.1012
-0.61638
0.624641
0.109874
-0.118064
-0.744762
0.752952
0.126518
-0.133673
-0.872056
0.87921
0.140903
-0.146809
-1.0181
1.02401
0.15237
-0.156421
-1.18797
1.19202
0.159562
-0.161038
-1.38468
1.38616
0.160997
-0.159258
-1.61332
1.61158
0.1561
-0.15178
-1.57421
1.56989
0.147457
-0.142672
-1.29272
1.28794
0.138527
-0.134358
-1.07195
1.06778
0.130615
-0.126071
-0.894724
0.89018
0.120767
-0.112008
-0.729091
0.720333
0.100301
-0.0840506
-0.532118
0.515867
0.0673555
-0.0490258
-0.31388
0.295551
0.0339157
-0.0203171
-0.140259
0.12666
0.0111
-0.00442736
-0.0417228
0.0350502
0.001114
-0.00303153
0.00191753
-0.0688349
0.0729517
-0.00411682
0.0291077
-0.0428437
-0.333921
0.347657
0.0567474
-0.0682471
-0.496007
0.507507
0.078495
-0.0880151
-0.636625
0.646145
0.0985755
-0.108186
-0.760753
0.770363
0.118822
-0.128267
-0.8855
0.894946
0.138278
-0.14712
-1.02896
1.0378
0.15625
-0.16395
-1.19496
1.20266
0.171403
-0.177104
-1.38644
1.39214
0.181783
-0.184287
-1.60858
1.61108
0.184576
-0.183206
-1.56449
1.56312
0.18079
-0.177437
-1.28221
1.27885
0.174434
-0.170934
-1.06217
1.05867
0.167853
-0.163343
-0.883872
0.879362
0.156125
-0.143333
-0.70975
0.696957
0.126009
-0.102884
-0.498762
0.475637
0.0802676
-0.0563971
-0.27714
0.253269
0.0377751
-0.0218578
-0.113706
0.0977885
0.0115654
-0.00447537
-0.0289354
0.0218454
0.0011049
-0.000895063
-0.00020984
-0.080084
0.0782612
0.00182274
0.00747974
-0.0165218
-0.364209
0.373251
0.0270672
-0.0351879
-0.523702
0.531823
0.043382
-0.0514329
-0.658132
0.666183
0.0611607
-0.0701632
-0.779653
0.788655
0.0796916
-0.0883658
-0.903838
0.912512
0.0975228
-0.105268
-1.04634
1.05409
0.113435
-0.119939
-1.21014
1.21664
0.12614
-0.130541
-1.39747
1.40187
0.133482
-0.134402
-1.61266
1.61358
0.133088
-0.130073
-1.56088
1.55786
0.126019
-0.120924
-1.27477
1.26967
0.116227
-0.111054
-1.05315
1.04798
0.106237
-0.100199
-0.870012
0.863975
0.0926571
-0.0814646
-0.680219
0.669027
0.0684624
-0.0528351
-0.451024
0.435397
0.0390215
-0.0260261
-0.229764
0.216768
0.016813
-0.00947313
-0.082882
0.0755421
0.0049634
-0.00192692
-0.0152247
0.0121882
0.000422402
0.00130223
-0.00172463
-0.0815386
0.0786643
0.00287435
-0.00168044
-0.00357046
-0.384648
0.389899
0.0107559
-0.0166163
-0.544127
0.549988
0.0226857
-0.0297119
-0.676303
0.683329
0.0381076
-0.0459174
-0.7968
0.804609
0.0544145
-0.0619849
-0.92045
0.92802
0.0697204
-0.0766052
-1.06164
1.06852
0.0836307
-0.0892796
-1.22267
1.22832
0.0941646
-0.0973365
-1.40554
1.40871
0.0992257
-0.0989488
-1.61368
1.61341
0.0964562
-0.0922691
-1.5541
1.54991
0.0872815
-0.0813863
-1.26422
1.25833
0.0755328
-0.0692404
-1.04131
1.03501
0.0633445
-0.0564986
-0.854376
0.84753
0.0496227
-0.0403892
-0.654381
0.645147
0.0310675
-0.0212555
-0.417943
0.408131
0.0141064
-0.00858101
-0.203176
0.19765
0.00531944
-0.00310178
-0.0681618
0.0659441
0.00176822
-0.000766332
-0.00917762
0.00817573
0.000136317
0.00230744
-0.00244375
-0.0802977
0.07758
0.00271776
-0.00528883
0.00275944
-0.398273
0.400803
0.00188187
-0.00630761
-0.559201
0.563627
0.0114266
-0.0173073
-0.691286
0.697167
0.0244694
-0.0311523
-0.811807
0.81849
0.0384125
-0.0449034
-0.935066
0.941557
0.0519063
-0.0577207
-1.07497
1.08078
0.0638205
-0.0682396
-1.23353
1.23795
0.0722952
-0.0747418
-1.41161
1.41405
0.0756982
-0.0744029
-1.61261
1.61131
0.0713457
-0.0666375
-1.5451
1.54039
0.0611877
-0.0544269
-1.25204
1.24528
0.0480784
-0.0411546
-1.02758
1.02066
0.0345499
-0.0275822
-0.837876
0.830909
0.0210367
-0.0138282
-0.632888
0.62568
0.00756763
-0.00254958
-0.397109
0.392091
7.65719e-05
0.000989383
-0.190521
0.189456
-0.00108357
0.000649788
-0.0626946
0.0631284
-0.000304312
0.000102439
-0.00687917
0.00708104
-7.7013e-05
0.00286193
-0.00278492
-0.0788072
0.0763983
0.00240888
-0.006419
0.00548765
-0.407357
0.408288
-0.00207558
-0.00113096
-0.571267
0.574474
0.00528967
-0.010623
-0.703838
0.709171
0.0166365
-0.0224993
-0.824492
0.830355
0.0287811
-0.0344064
-0.947595
0.95322
0.0403904
-0.0455394
-1.08645
1.0916
0.0506584
-0.0546636
-1.2422
1.24621
0.0580301
-0.0599034
-1.4161
1.41797
0.0602942
-0.0585262
-1.60978
1.60802
0.055065
-0.0497939
-1.53492
1.52965
0.044066
-0.0371945
-1.23838
1.23151
0.0306309
-0.0233031
-1.01295
1.00562
0.0166171
-0.00955181
-0.821628
0.814563
0.00368729
0.00203823
-0.615762
0.610036
-0.00611031
0.00824898
-0.384741
0.382602
-0.0082435
0.00697155
-0.186143
0.187415
-0.00530612
0.00338911
-0.0627242
0.0646412
-0.00190716
0.000764529
-0.00712592
0.00826855
-0.000244165
0.00296273
-0.00271857
-0.0774202
0.0753552
0.00206498
-0.00630559
0.00588246
-0.413583
0.414006
-0.00385329
0.00127747
-0.580555
0.583131
0.00278147
-0.00734277
-0.714471
0.719033
0.0125111
-0.0176006
-0.835443
0.840532
0.0231827
-0.0281995
-0.958492
0.963508
0.0336566
-0.0381445
-1.09645
1.10094
0.042718
-0.0462783
-1.24991
1.25347
0.0491615
-0.0506528
-1.41955
1.42104
0.0506716
-0.0490055
-1.60611
1.60444
0.0453426
-0.0401436
-1.52391
1.51872
0.0343974
-0.0275331
-1.22443
1.21757
0.0212014
-0.0137352
-0.997856
0.99039
0.00697834
-9.85398e-05
-0.805894
0.799014
-0.00522685
0.00986616
-0.601734
0.597095
-0.0128114
0.0138372
-0.377549
0.376523
-0.012566
0.0102115
-0.186462
0.188816
-0.0078413
0.00513097
-0.0657876
0.0684979
-0.00296181
0.00120774
-0.0092615
0.0110156
-0.000369867
0.00262275
-0.00225288
-0.0763643
0.0747538
0.00161043
-0.00543724
0.00534777
-0.418202
0.418291
-0.00372303
0.00178937
-0.588647
0.590581
0.00201308
-0.00613695
-0.723671
0.727795
0.0110395
-0.0154197
-0.845232
0.849612
0.0203187
-0.0247593
-0.968488
0.972929
0.0299299
-0.0339981
-1.10545
1.10952
0.0380417
-0.0413892
-1.25683
1.26018
0.0443931
-0.0456981
-1.42254
1.42384
0.04573
-0.0439854
-1.60237
1.60063
0.0407238
-0.0354708
-1.51335
1.50809
0.030106
-0.0236481
-1.21059
1.20414
0.0174069
-0.0103928
-0.982835
0.975821
0.0038435
0.00285987
-0.790815
0.784112
-0.0078431
0.0119953
-0.58959
0.585438
-0.0144888
0.0151235
-0.372657
0.372022
-0.0139102
0.0114679
-0.188901
0.191343
-0.00890679
0.00596368
-0.0704137
0.0733568
-0.00354747
0.00152599
-0.012462
0.0144835
-0.000441893
0.00200011
-0.00155822
-0.0758081
0.0745432
0.00126485
-0.00437289
0.00441074
-0.421862
0.421824
-0.00298666
0.00114233
-0.595681
0.597525
0.00250921
-0.0061875
-0.731929
0.735608
0.0103867
-0.0146094
-0.853936
0.858159
0.0191296
-0.0237022
-0.977172
0.981745
0.0281436
-0.0320259
-1.11368
1.11756
0.0361914
-0.0392876
-1.2634
1.2665
0.0418068
-0.0435171
-1.42505
1.42676
0.0437293
-0.0422815
-1.59895
1.59751
0.0392031
-0.0345349
-1.50308
1.49841
0.0294918
-0.0233734
-1.19742
1.19131
0.0175587
-0.0109535
-0.968651
0.962046
0.00485182
0.00131856
-0.776661
0.770491
-0.00627732
0.0101923
-0.578375
0.57446
-0.0124106
0.0134014
-0.368814
0.367823
-0.0127088
0.0106216
-0.19142
0.193507
-0.0083801
0.00570701
-0.0752509
0.077924
-0.00346749
0.00153587
-0.016014
0.0179456
-0.000442467
0.00122382
-0.000781354
-0.0757762
0.074725
0.00105127
-0.00310812
0.00291386
-0.425139
0.425333
-0.00174165
-5.84176e-05
-0.602138
0.603938
0.00354275
-0.00709761
-0.739599
0.743154
0.0111234
-0.0149386
-0.862159
0.865974
0.0195707
-0.0233556
-0.985737
0.989522
0.0277646
-0.0314654
-1.12159
1.12529
0.0355149
-0.0388047
-1.26957
1.27286
0.0416099
-0.0431106
-1.42823
1.42973
0.0436783
-0.0426429
-1.596
1.59496
0.0401976
-0.0358274
-1.49365
1.48928
0.0312262
-0.0255649
-1.18536
1.17969
0.0202513
-0.014147
-0.955286
0.949182
0.00865425
-0.0027839
-0.763589
0.757719
-0.00206038
0.00607785
-0.568018
0.564001
-0.00838394
0.0094693
-0.364614
0.363529
-0.00945302
0.00817261
-0.193201
0.194482
-0.00660792
0.00458833
-0.0793773
0.0813969
-0.0028328
0.00128527
-0.0192139
0.0207614
-0.000363789
0.000451091
-8.73016e-05
-0.0760252
0.0752967
0.000728571
-0.00196181
0.0013352
-0.428506
0.429132
-0.000343617
-0.00174896
-0.607752
0.609845
0.00480642
-0.00820374
-0.746742
0.750139
0.0120573
-0.0159975
-0.869642
0.873582
0.020013
-0.0239581
-0.993507
0.997452
0.0283317
-0.0318277
-1.12941
1.13291
0.0359691
-0.0392179
-1.27594
1.27919
0.0420926
-0.0441354
-1.43164
1.43368
0.0452081
-0.0444663
-1.59397
1.59323
0.0422777
-0.038661
-1.48512
1.48151
0.034688
-0.0295515
-1.17403
1.1689
0.0246727
-0.0193178
-0.94311
0.937755
0.0139022
-0.00852632
-0.75122
0.745844
0.00382335
0.00059035
-0.558207
0.553794
-0.00309008
0.00467258
-0.3598
0.358218
-0.00521607
0.00492182
-0.193737
0.194032
-0.00410174
0.00294841
-0.0821101
0.0832634
-0.00190111
0.000901462
-0.0215691
0.0225688
-0.000269621
-0.000171992
0.000441612
-0.0766988
0.0761265
0.000572336
-0.000989212
0.000467482
-0.4321
0.432622
0.00119545
-0.00313376
-0.613589
0.615527
0.00633484
-0.00959881
-0.753359
0.756623
0.0133028
-0.0168414
-0.87718
0.880719
0.0209806
-0.0246143
-1.0014
1.00503
0.0289414
-0.0328746
-1.13685
1.14078
0.0366632
-0.0402498
-1.28248
1.28607
0.0435586
-0.0457117
-1.43562
1.43778
0.0471776
-0.0472409
-1.59272
1.59278
0.045547
-0.0426639
-1.47783
1.47495
0.0390509
-0.0345579
-1.16394
1.15945
0.0302451
-0.0251811
-0.932066
0.927002
0.020236
-0.015024
-0.739655
0.734443
0.0104013
-0.00577876
-0.54809
0.543468
0.00259656
-0.000365435
-0.354127
0.351896
-0.000928074
0.00148445
-0.192607
0.192051
-0.00149858
0.00120724
-0.0831456
0.0834369
-0.000846533
0.000445294
-0.0228312
0.0232324
-0.000150422
-0.000570654
0.000721076
-0.077645
0.0772574
0.000387625
2.64575e-05
-0.000823068
-0.435797
0.436594
0.0023631
-0.0046215
-0.61901
0.621269
0.00774026
-0.0108406
-0.759744
0.762845
0.0146325
-0.018021
-0.884224
0.887612
0.022006
-0.0257659
-1.00913
1.01289
0.0300002
-0.0339035
-1.14456
1.14846
0.0379215
-0.0415461
-1.28957
1.29319
0.0450586
-0.047975
-1.44022
1.44313
0.0499075
-0.0503056
-1.59279
1.59319
0.0493783
-0.046939
-1.47204
1.4696
0.0439998
-0.0401475
-1.15501
1.15116
0.0359615
-0.0311754
-0.921691
0.916904
0.0264665
-0.0212646
-0.728576
0.723374
0.0167136
-0.0117743
-0.53792
0.53298
0.00808504
-0.00502134
-0.347391
0.344327
0.00309579
-0.00172145
-0.189763
0.188389
0.000837191
-0.000282101
-0.0825085
0.0819534
1.0225e-05
9.65729e-05
-0.0229736
0.0228668
-6.17754e-05
-0.000729521
0.000791297
-0.0788237
0.0785705