/*--------------------------------*- C++ -*----------------------------------*\
  =========                 |
  \\      /  F ield         | OpenFOAM: The Open Source CFD Toolbox
   \\    /   O peration     | Website:  https://openfoam.org
    \\  /    A nd           | Version:  9
     \\/     M anipulation  |
\*---------------------------------------------------------------------------*/
FoamFile
{
    format      ascii;
    class       volVectorField;
    location    "56";
    object      U;
}
// * * * * * * * * * * * * * * * * * * * * * * * * * * * * * * * * * * * * * //

dimensions      [0 1 -1 0 0 0 0];

internalField   nonuniform List<vector> 
8800
(
(0.98014 -0.0915212 0)
(1.00234 -0.0587308 0)
(0.999576 -0.032131 0)
(0.999969 -0.016526 0)
(1.00006 -0.00884648 0)
(1.00008 -0.00510064 0)
(1.00005 -0.00299593 0)
(1.00002 -0.00168458 0)
(0.999998 -0.000783266 0)
(1.00006 -8.4911e-05 0)
(0.999987 0.000623208 0)
(0.999995 0.00137778 0)
(1.00002 0.00240316 0)
(1.00004 0.00400581 0)
(1.00004 0.00675056 0)
(0.999994 0.0120515 0)
(0.999791 0.0230953 0)
(0.999029 0.0431571 0)
(1.00723 0.0790259 0)
(0.775025 0.0478395 0)
(0.358987 -0.0147485 0)
(1.0465 -0.0724838 0)
(1.08847 -0.0660218 0)
(1.04943 -0.0509174 0)
(1.02553 -0.0376993 0)
(1.01273 -0.0258939 0)
(1.00657 -0.0166966 0)
(1.00363 -0.0102048 0)
(1.00219 -0.00557305 0)
(1.00151 -0.0019783 0)
(1.00138 0.00123528 0)
(1.00173 0.00454394 0)
(1.0027 0.00843273 0)
(1.00474 0.0137453 0)
(1.00897 0.0214203 0)
(1.01795 0.0319104 0)
(1.03578 0.0446814 0)
(1.0674 0.0581212 0)
(1.09469 0.0699578 0)
(0.845619 0.0555083 0)
(0.217796 -0.00138066 0)
(1.07567 -0.0506482 0)
(1.0994 -0.0489308 0)
(1.06438 -0.0400151 0)
(1.03989 -0.0325559 0)
(1.0238 -0.0253405 0)
(1.01402 -0.018117 0)
(1.00852 -0.0114913 0)
(1.00566 -0.00573166 0)
(1.00448 -0.000438592 0)
(1.00479 0.00467349 0)
(1.00663 0.00996017 0)
(1.01056 0.0159281 0)
(1.01789 0.0226799 0)
(1.03049 0.0297775 0)
(1.05047 0.0368607 0)
(1.08002 0.0446333 0)
(1.10563 0.051954 0)
(0.943238 0.0410177 0)
(0.217173 0.00140596 0)
(0.176656 -0.000628422 0)
(1.01941 -0.0354563 0)
(1.10572 -0.0413996 0)
(1.07797 -0.0363827 0)
(1.05245 -0.0303365 0)
(1.03523 -0.0244576 0)
(1.02337 -0.0186571 0)
(1.01556 -0.0126531 0)
(1.01095 -0.00655174 0)
(1.00891 -0.000309907 0)
(1.00943 0.0058495 0)
(1.0125 0.0117624 0)
(1.01846 0.0175268 0)
(1.02805 0.0230963 0)
(1.04224 0.0286357 0)
(1.06305 0.0344093 0)
(1.09383 0.0402893 0)
(1.09438 0.0418066 0)
(0.830126 0.0227883 0)
(0.175592 0.000648721 0)
(0.154755 -0.000462174 0)
(0.958219 -0.0256816 0)
(1.10442 -0.0351004 0)
(1.08809 -0.0326487 0)
(1.06127 -0.0281403 0)
(1.04323 -0.0231763 0)
(1.03085 -0.0178691 0)
(1.02225 -0.0123197 0)
(1.01669 -0.00640159 0)
(1.01403 5.7361e-05 0)
(1.01466 0.00651884 0)
(1.01843 0.0123895 0)
(1.02521 0.0177006 0)
(1.03535 0.0226974 0)
(1.05008 0.0275076 0)
(1.072 0.0319394 0)
(1.10095 0.0358109 0)
(1.06961 0.0340081 0)
(0.74241 0.0144673 0)
(0.15316 0.000485018 0)
(0.14008 -0.00033407 0)
(0.901234 -0.0193159 0)
(1.09685 -0.0302041 0)
(1.09624 -0.029323 0)
(1.06899 -0.0255407 0)
(1.05017 -0.0214552 0)
(1.0372 -0.0167502 0)
(1.02821 -0.0114926 0)
(1.02226 -0.00576148 0)
(1.01926 0.000601146 0)
(1.01986 0.00697744 0)
(1.02384 0.0126251 0)
(1.03086 0.0175979 0)
(1.04136 0.0220555 0)
(1.05672 0.0259862 0)
(1.0795 0.0294908 0)
(1.10324 0.0321991 0)
(1.03778 0.0281785 0)
(0.675532 0.0103239 0)
(0.137833 0.000361195 0)
(0.129351 -0.000252655 0)
(0.851387 -0.0149193 0)
(1.08451 -0.0261046 0)
(1.10193 -0.0264475 0)
(1.07583 -0.0231277 0)
(1.0565 -0.0194728 0)
(1.0431 -0.0152711 0)
(1.03374 -0.0104011 0)
(1.02751 -0.0048942 0)
(1.02429 0.0012808 0)
(1.02477 0.00743842 0)
(1.02876 0.0128037 0)
(1.03593 0.017355 0)
(1.04672 0.0212082 0)
(1.06244 0.0245383 0)
(1.08567 0.0275636 0)
(1.10244 0.0293725 0)
(1.00304 0.023646 0)
(0.623415 0.00792457 0)
(0.126309 0.000285602 0)
(0.121175 -0.000193855 0)
(0.808913 -0.0117346 0)
(1.06921 -0.0225123 0)
(1.10546 -0.0238227 0)
(1.08209 -0.0209577 0)
(1.0623 -0.0175317 0)
(1.04863 -0.0136146 0)
(1.03901 -0.00906892 0)
(1.03251 -0.00383925 0)
(1.02905 0.00210051 0)
(1.02937 0.00798902 0)
(1.03332 0.0129988 0)
(1.04054 0.0170909 0)
(1.05143 0.0204708 0)
(1.0674 0.0234069 0)
(1.09101 0.0261163 0)
(1.09876 0.0270168 0)
(0.967883 0.0200817 0)
(0.581569 0.0063605 0)
(0.117165 0.000233912 0)
(0.114836 -0.000149267 0)
(0.773095 -0.00935182 0)
(1.05235 -0.0193505 0)
(1.10781 -0.0213992 0)
(1.08796 -0.0189188 0)
(1.06776 -0.0156553 0)
(1.05383 -0.011909 0)
(1.04402 -0.00756923 0)
(1.03729 -0.00258366 0)
(1.03357 0.00309059 0)
(1.03369 0.00866526 0)
(1.03751 0.0132948 0)
(1.04467 0.0169843 0)
(1.05558 0.0199873 0)
(1.07177 0.0225919 0)
(1.09508 0.0249571 0)
(1.09228 0.0250594 0)
(0.933661 0.0173208 0)
(0.54699 0.00528724 0)
(0.10965 0.000197908 0)
(0.109886 -0.000114091 0)
(0.743006 -0.00750648 0)
(1.03502 -0.0165479 0)
(1.10919 -0.0191226 0)
(1.09353 -0.0169585 0)
(1.07303 -0.0137985 0)
(1.05882 -0.0101561 0)
(1.04881 -0.00594622 0)
(1.04187 -0.00113674 0)
(1.03788 0.00428178 0)
(1.03772 0.00952839 0)
(1.04132 0.0137961 0)
(1.04835 0.0171281 0)
(1.05926 0.0197866 0)
(1.07568 0.0220987 0)
(1.09788 0.0240956 0)
(1.08337 0.0234433 0)
(0.900971 0.0152125 0)
(0.517616 0.00453574 0)
(0.103271 0.000172997 0)
(0.106032 -8.5061e-05 0)
(0.717824 -0.00602161 0)
(1.01803 -0.0140323 0)
(1.10973 -0.0169236 0)
(1.09898 -0.0150508 0)
(1.0782 -0.0119158 0)
(1.06369 -0.00831388 0)
(1.05346 -0.00417682 0)
(1.04628 0.000510577 0)
(1.04198 0.00571218 0)
(1.04147 0.0106516 0)
(1.04478 0.014575 0)
(1.05163 0.0175583 0)
(1.06252 0.019883 0)
(1.07913 0.0219349 0)
(1.09933 0.0235397 0)
(1.07243 0.0221592 0)
(0.869953 0.0136421 0)
(0.491987 0.00401423 0)
(0.0976819 0.000156652 0)
(0.103084 -6.0013e-05 0)
(0.696904 -0.00477918 0)
(1.002 -0.0117385 0)
(1.10956 -0.014765 0)
(1.10426 -0.013101 0)
(1.08336 -0.00994035 0)
(1.06852 -0.00632516 0)
(1.05804 -0.00220421 0)
(1.05056 0.0024085 0)
(1.04588 0.00743556 0)
(1.04495 0.0120922 0)
(1.04789 0.0156866 0)
(1.05453 0.0183357 0)
(1.06538 0.0203252 0)
(1.08214 0.0221165 0)
(1.09981 0.0233169 0)
(1.05974 0.0212157 0)
(0.840465 0.0125189 0)
(0.469015 0.00366566 0)
(0.092622 0.00014705 0)
(0.100917 -3.70068e-05 0)
(0.679772 -0.00369057 0)
(0.987396 -0.00959552 0)
(1.1089 -0.0125644 0)
(1.10934 -0.0110341 0)
(1.08858 -0.00783402 0)
(1.07339 -0.00414901 0)
(1.06259 2.09276e-05 0)
(1.05475 0.00461173 0)
(1.04961 0.00951686 0)
(1.04816 0.0139225 0)
(1.05068 0.0171907 0)
(1.05705 0.0194993 0)
(1.06783 0.0211538 0)
(1.08467 0.022674 0)
(1.09929 0.0234694 0)
(1.04549 0.0206272 0)
(0.812202 0.0117703 0)
(0.447852 0.00345147 0)
(0.0878896 0.00014275 0)
(0.0994699 -1.43449e-05 0)
(0.66612 -0.00268614 0)
(0.974569 -0.0075288 0)
(1.10805 -0.0102562 0)
(1.11434 -0.00877362 0)
(1.09394 -0.00549528 0)
(1.07836 -0.00168028 0)
(1.06719 0.00258983 0)
(1.05891 0.00721477 0)
(1.05318 0.0120409 0)
(1.05112 0.0162122 0)
(1.05313 0.019157 0)
(1.05919 0.0211124 0)
(1.06988 0.0223989 0)
(1.08674 0.0236559 0)
(1.09756 0.0240057 0)
(1.02976 0.0203751 0)
(0.78477 0.0113412 0)
(0.427816 0.00334562 0)
(0.0833245 0.000142709 0)
(0.0987231 9.78313e-06 0)
(0.655792 -0.00171195 0)
(0.963835 -0.00546767 0)
(1.10735 -0.00778353 0)
(1.1194 -0.00625852 0)
(1.09951 -0.00285542 0)
(1.08351 0.00115196 0)
(1.0719 0.00558887 0)
(1.06306 0.0103134 0)
(1.05664 0.0151001 0)
(1.05382 0.0190467 0)
(1.05522 0.0216564 0)
(1.06091 0.0232471 0)
(1.07148 0.0241482 0)
(1.08829 0.0251114 0)
(1.09458 0.024964 0)
(1.01256 0.02049 0)
(0.757734 0.0111983 0)
(0.408345 0.00333265 0)
(0.0787948 0.000146409 0)
(0.0986969 3.15614e-05 0)
(0.648759 -0.000720232 0)
(0.955495 -0.00333592 0)
(1.10711 -0.0050662 0)
(1.12465 -0.00340272 0)
(1.10539 0.000175282 0)
(1.08894 0.00444525 0)
(1.07679 0.00912506 0)
(1.06728 0.0140158 0)
(1.06 0.0188111 0)
(1.05628 0.0225501 0)
(1.05695 0.024813 0)
(1.06218 0.0260037 0)
(1.07261 0.0264969 0)
(1.08909 0.0270932 0)
(1.0901 0.0263863 0)
(0.993752 0.0209954 0)
(0.730603 0.0113264 0)
(0.388927 0.00340485 0)
(0.0741805 0.000153528 0)
(0.0994275 6.97788e-05 0)
(0.6451 0.000300905 0)
(0.949871 -0.00106028 0)
(1.10771 -0.00201975 0)
(1.13032 -9.32096e-05 0)
(1.11169 0.00374702 0)
(1.09472 0.00836432 0)
(1.08193 0.0133595 0)
(1.07161 0.0184791 0)
(1.0633 0.0233171 0)
(1.05849 0.0268365 0)
(1.05827 0.0287188 0)
(1.06296 0.0294825 0)
(1.07321 0.0295394 0)
(1.08901 0.0297175 0)
(1.084 0.028309 0)
(0.973129 0.021916 0)
(0.702838 0.0117133 0)
(0.369083 0.00355455 0)
(0.069373 0.000163611 0)
(0.10112 9.73771e-05 0)
(0.645196 0.00146047 0)
(0.947305 0.00144315 0)
(1.10956 0.00145272 0)
(1.1366 0.00375165 0)
(1.11855 0.00797692 0)
(1.10098 0.0130334 0)
(1.08741 0.0184392 0)
(1.07609 0.0238666 0)
(1.06651 0.0287879 0)
(1.06039 0.0320901 0)
(1.05914 0.0335398 0)
(1.06317 0.0338257 0)
(1.0732 0.033406 0)
(1.08785 0.0330966 0)
(1.076 0.0308234 0)
(0.950368 0.0232848 0)
(0.673875 0.012357 0)
(0.348366 0.0037774 0)
(0.0642762 0.000176223 0)
(0.103834 0.00014446 0)
(0.649405 0.00288467 0)
(0.948295 0.00432237 0)
(1.11316 0.00547571 0)
(1.1437 0.00830551 0)
(1.12609 0.0130502 0)
(1.10785 0.0186605 0)
(1.09333 0.0245846 0)
(1.08077 0.0303933 0)
(1.06965 0.0354269 0)
(1.06196 0.0384745 0)
(1.0595 0.0394179 0)
(1.06275 0.0391751 0)
(1.07251 0.0382169 0)
(1.0854 0.0373522 0)
(1.06579 0.0340237 0)
(0.925028 0.0251498 0)
(0.643093 0.0132598 0)
(0.326333 0.00406982 0)
(0.058801 0.000190915 0)
(0.107848 0.000206023 0)
(0.658307 0.00456226 0)
(0.953308 0.00773333 0)
(1.119 0.0102279 0)
(1.15191 0.0137965 0)
(1.13455 0.019238 0)
(1.11547 0.0255373 0)
(1.09977 0.032085 0)
(1.08568 0.0383387 0)
(1.07269 0.0434677 0)
(1.06314 0.0461669 0)
(1.05929 0.0465228 0)
(1.06161 0.0456891 0)
(1.07103 0.0441128 0)
(1.08164 0.0426402 0)
(1.05294 0.0380216 0)
(0.896544 0.0275388 0)
(0.60982 0.014414 0)
(0.302558 0.00442315 0)
(0.0528718 0.000206757 0)
(0.113494 0.000289502 0)
(0.672602 0.00664848 0)
(0.962992 0.0118715 0)
(1.12767 0.0159395 0)
(1.16158 0.0204611 0)
(1.14416 0.0268186 0)
(1.12402 0.0339661 0)
(1.10684 0.041264 0)
(1.09085 0.0480114 0)
(1.07561 0.053195 0)
(1.06387 0.0554363 0)
(1.05836 0.0550723 0)
(1.05963 0.053544 0)
(1.06865 0.0512767 0)
(1.07642 0.0490664 0)
(1.03692 0.0428934 0)
(0.864225 0.0304724 0)
(0.573354 0.0157998 0)
(0.276651 0.00482211 0)
(0.0464386 0.000222284 0)
(0.121275 0.000407944 0)
(0.693207 0.0093737 0)
(0.978222 0.0170448 0)
(1.1398 0.0229636 0)
(1.17316 0.0286921 0)
(1.15521 0.0362402 0)
(1.13369 0.0444306 0)
(1.11459 0.052594 0)
(1.09622 0.0598326 0)
(1.07824 0.0649473 0)
(1.06396 0.0665407 0)
(1.05655 0.0652811 0)
(1.05668 0.062922 0)
(1.06527 0.0598806 0)
(1.0694 0.0567712 0)
(1.01709 0.0487279 0)
(0.827261 0.0339507 0)
(0.532976 0.0173757 0)
(0.248298 0.00524252 0)
(0.0394889 0.000235667 0)
(0.131912 0.000578055 0)
(0.721462 0.013122 0)
(1.00016 0.0237333 0)
(1.15619 0.0318614 0)
(1.18724 0.0391333 0)
(1.16805 0.0482415 0)
(1.14464 0.057645 0)
(1.12303 0.0666978 0)
(1.10168 0.074294 0)
(1.08045 0.0790669 0)
(1.06327 0.0797126 0)
(1.05377 0.0773263 0)
(1.05266 0.0739864 0)
(1.06061 0.0700116 0)
(1.06004 0.0658085 0)
(0.992569 0.0555618 0)
(0.784742 0.0379131 0)
(0.488032 0.019058 0)
(0.217328 0.00564461 0)
(0.0320655 0.000244241 0)
(0.146687 0.000854173 0)
(0.759372 0.0184881 0)
(1.03045 0.032712 0)
(1.1778 0.0435496 0)
(1.20462 0.0528095 0)
(1.183 0.0638054 0)
(1.15688 0.074519 0)
(1.13198 0.0843355 0)
(1.10695 0.0919584 0)
(1.08192 0.0959281 0)
(1.06151 0.0951799 0)
(1.0498 0.0913625 0)
(1.0474 0.0868374 0)
(1.05433 0.0818258 0)
(1.04765 0.0763632 0)
(0.962303 0.0633131 0)
(0.735737 0.0422244 0)
(0.438061 0.0207124 0)
(0.183826 0.00597203 0)
(0.0242913 0.000244881 0)
(0.167768 0.00132848 0)
(0.810179 0.0266484 0)
(1.07163 0.045541 0)
(1.20569 0.0598553 0)
(1.22589 0.071823 0)
(1.20013 0.0845055 0)
(1.17019 0.0963485 0)
(1.14104 0.106435 0)
(1.11159 0.113423 0)
(1.08226 0.115901 0)
(1.05839 0.113181 0)
(1.04439 0.107559 0)
(1.04071 0.101635 0)
(1.04628 0.0956212 0)
(1.03142 0.0883 0)
(0.924986 0.0717704 0)
(0.679463 0.0466322 0)
(0.383082 0.0221481 0)
(0.14833 0.00615221 0)
(0.0164056 0.000233444 0)
(0.198533 0.00238195 0)
(0.879574 0.0403039 0)
(1.12735 0.0660603 0)
(1.24034 0.0843592 0)
(1.25079 0.0989257 0)
(1.21886 0.112744 0)
(1.18376 0.124772 0)
(1.14936 0.134006 0)
(1.11486 0.13925 0)
(1.08091 0.139214 0)
(1.05354 0.133773 0)
(1.03734 0.12591 0)
(1.03246 0.118368 0)
(1.03618 0.111242 0)
(1.01019 0.10148 0)
(0.879054 0.0804871 0)
(0.615667 0.0507168 0)
(0.324291 0.0231862 0)
(0.112337 0.00614758 0)
(0.00889612 0.000205801 0)
(0.240482 0.00858995 5.45333e-20)
(0.971656 0.0675339 4.7457e-20)
(1.19541 0.100409 -1.64885e-20)
(1.27867 0.120696 0)
(1.2766 0.137683 -4.10859e-34)
(1.23709 0.150829 5.98128e-21)
(1.19605 0.161275 -1.06245e-20)
(1.1559 0.168255 0)
(1.11598 0.170685 2.14799e-34)
(1.0771 0.167349 -1.2823e-20)
(1.04596 0.158701 0)
(1.02735 0.148369 -1.50764e-20)
(1.02127 0.139242 -4.4372e-20)
(1.02268 0.131525 -2.09338e-20)
(0.980755 0.118701 -6.28131e-21)
(0.819252 0.0914461 -3.72853e-21)
(0.538833 0.0552048 0)
(0.25975 0.0242275 2.60691e-21)
(0.0761179 0.00632126 3.07801e-21)
(0.00188307 0.000215193 5.54777e-20)
(0.26992 0.0239825 4.17853e-20)
(1.04765 0.110048 5.3004e-22)
(1.25154 0.14934 4.4849e-21)
(1.31285 0.169808 0)
(1.29918 0.186646 -2.11498e-20)
(1.25261 0.197598 -2.38442e-20)
(1.20564 0.205718 -1.07956e-20)
(1.1596 0.210195 -3.79538e-20)
(1.11395 0.20979 0)
(1.06962 0.203217 5.46791e-20)
(1.03404 0.191425 5.395e-20)
(1.01252 0.178622 1.59737e-20)
(1.00429 0.167508 5.79608e-20)
(0.998847 0.157317 8.12124e-20)
(0.935474 0.13993 0)
(0.739881 0.104388 1.14158e-19)
(0.44935 0.0604213 1.63709e-19)
(0.192488 0.0250845 1.81817e-19)
(0.0407575 0.00552721 -2.07849e-19)
(-0.00496237 -0.000387166 -3.91158e-21)
(0.271018 0.039713 0)
(1.09562 0.165178 7.79629e-21)
(1.28918 0.209543 0)
(1.33931 0.229485 -2.87626e-20)
(1.31678 0.243279 0)
(1.26428 0.250398 -4.73869e-20)
(1.21177 0.254823 2.21831e-20)
(1.16015 0.255724 -7.69093e-20)
(1.10905 0.251662 -1.57215e-21)
(1.05947 0.241284 2.84013e-20)
(1.01959 0.226025 1.18492e-19)
(0.995193 0.210602 -2.59181e-22)
(0.984544 0.197462 -4.20901e-20)
(0.97259 0.184788 -7.64562e-20)
(0.894603 0.162277 9.03771e-20)
(0.684564 0.117811 -1.59959e-19)
(0.399686 0.0660444 -2.11233e-20)
(0.161143 0.0263294 0)
(0.0257722 0.00456764 -7.79729e-24)
(-0.00789247 -0.00114346 0)
(0.264771 0.0533495 1.12677e-19)
(1.12148 0.223634 -5.33635e-20)
(1.31228 0.274232 -3.88826e-20)
(1.35672 0.294344 1.38722e-20)
(1.32803 0.304272 -2.31948e-20)
(1.27108 0.30692 9.96608e-20)
(1.21399 0.306979 4.64709e-20)
(1.15751 0.303682 0)
(1.10149 0.295462 -1.43644e-19)
(1.04707 0.280891 0)
(1.00314 0.26194 -6.23579e-20)
(0.975902 0.243772 -7.64816e-20)
(0.962769 0.228489 -4.58379e-20)
(0.945841 0.213162 -5.55178e-20)
(0.860423 0.185499 0)
(0.648973 0.133537 0)
(0.375518 0.0747638 -1.37392e-19)
(0.149826 0.0294656 2.71742e-20)
(0.0205015 0.00402443 -1.59118e-20)
(-0.00947275 -0.00190171 -1.86144e-20)
(0.257352 0.0654261 -5.26462e-20)
(1.13288 0.281967 0)
(1.32491 0.339881 8.3255e-20)
(1.36606 0.360647 3.9984e-20)
(1.33302 0.366791 5.30627e-20)
(1.27283 0.364951 0)
(1.21211 0.360535 4.59733e-20)
(1.15163 0.35287 8.55391e-20)
(1.09138 0.340304 7.39307e-20)
(1.03261 0.321359 1.33757e-19)
(0.984926 0.2985 0)
(0.954954 0.277403 -1.6506e-19)
(0.939471 0.259953 -9.91081e-20)
(0.91875 0.242094 -5.85205e-20)
(0.831082 0.209943 3.57473e-19)
(0.625981 0.151417 4.24714e-20)
(0.366276 0.0865372 1.99328e-19)
(0.151316 0.0348491 -9.44405e-19)
(0.0226516 0.004815 5.58864e-19)
(-0.00944383 -0.00238274 -6.73556e-19)
(0.250257 0.0763481 -3.46809e-20)
(1.13505 0.33834 9.83099e-21)
(1.32995 0.404576 -9.91291e-21)
(1.36892 0.42649 -4.3475e-20)
(1.33272 0.42908 -4.65713e-20)
(1.2701 0.42293 1.79858e-21)
(1.20651 0.414199 -4.97731e-20)
(1.14274 0.402261 8.88683e-20)
(1.07884 0.385394 -1.59169e-19)
(1.0162 0.362059 0)
(0.965032 0.335294 -7.49949e-20)
(0.932461 0.311344 -1.61984e-21)
(0.914696 0.291741 -1.0839e-19)
(0.891119 0.271337 0)
(0.804623 0.235087 -7.7542e-20)
(0.609426 0.171319 -1.83917e-19)
(0.365007 0.100592 4.89621e-19)
(0.158681 0.0424904 -4.82627e-19)
(0.0296763 0.00739287 6.85746e-19)
(-0.00789791 -0.00240435 -7.1253e-19)
(0.244319 0.0864625 -4.11087e-22)
(1.13151 0.392101 -6.13662e-21)
(1.32953 0.467322 -3.19943e-20)
(1.36675 0.490651 1.87522e-20)
(1.32819 0.490071 -2.37227e-20)
(1.26371 0.479898 0)
(1.19782 0.467126 -4.71206e-20)
(1.13129 0.451133 -9.33204e-20)
(1.06423 0.430127 -8.29979e-20)
(0.998119 0.402541 0)
(0.943791 0.372037 -7.80975e-20)
(0.908757 0.345309 -9.61724e-20)
(0.888761 0.32354 1.17609e-19)
(0.863013 0.300714 -7.12141e-20)
(0.779079 0.260793 -3.39121e-19)
(0.594945 0.192629 2.0128e-19)
(0.366089 0.115922 5.9885e-20)
(0.168047 0.0517637 0)
(0.038677 0.011389 -6.63893e-19)
(-0.00559936 -0.00199695 -2.43581e-20)
(0.239633 0.0960796 -1.74849e-21)
(1.12455 0.443059 3.80415e-21)
(1.32515 0.527643 1.58018e-20)
(1.36076 0.552409 6.52306e-20)
(1.32035 0.549089 -9.00193e-20)
(1.25446 0.53527 9.91513e-20)
(1.18671 0.518778 1.01482e-19)
(1.11783 0.499001 -1.49248e-19)
(1.048 0.474093 5.06288e-20)
(0.978772 0.442463 -3.29416e-19)
(0.92155 0.408309 -8.80185e-20)
(0.884208 0.378738 0)
(0.862165 0.354817 1.27571e-19)
(0.83478 0.329883 1.52684e-19)
(0.752983 0.286772 1.82625e-19)
(0.580185 0.214515 -2.18877e-19)
(0.365545 0.13217 -6.48112e-20)
(0.176185 0.0624025 7.61165e-20)
(0.0475325 0.0164435 0)
(-0.00300809 -0.001244 -5.29173e-20)
(0.236105 0.105358 -3.95352e-21)
(1.11575 0.491316 -4.79932e-21)
(1.31807 0.585537 -1.52432e-20)
(1.35196 0.611437 4.12583e-20)
(1.31003 0.605743 -4.20356e-20)
(1.24306 0.58865 -4.07043e-21)
(1.17378 0.568799 -1.1067e-19)
(1.10288 0.545548 -5.39436e-20)
(1.03057 0.517007 -1.44186e-19)
(0.958494 0.481548 3.02753e-22)
(0.89856 0.44375 -2.76287e-19)
(0.859108 0.411343 2.31502e-19)
(0.83532 0.385436 -1.40072e-19)
(0.80649 0.358474 1.68178e-19)
(0.726548 0.312073 0)
(0.563923 0.236083 -1.18915e-19)
(0.362007 0.148476 8.77751e-24)
(0.181366 0.0732453 -3.32145e-19)
(0.0545848 0.0218016 -4.87754e-20)
(-0.000647966 -0.000333725 0)
(0.233595 0.114444 0)
(1.10605 0.5371 -1.65076e-21)
(1.30906 0.640884 -2.1152e-20)
(1.34112 0.667624 -3.93869e-20)
(1.29789 0.659828 -5.15472e-20)
(1.23008 0.639823 0)
(1.15954 0.616957 -5.13174e-20)
(1.08688 0.590554 -1.07052e-21)
(1.01233 0.558685 3.09062e-19)
(0.93758 0.519607 -4.54187e-20)
(0.875054 0.478256 -1.99368e-19)
(0.833671 0.443197 1.20619e-19)
(0.80835 0.415437 -2.2103e-21)
(0.778107 0.38613 1.78937e-19)
(0.699674 0.3363 1.10118e-19)
(0.545825 0.256128 -2.56914e-19)
(0.355045 0.163747 3.04029e-19)
(0.182493 0.0832162 8.99977e-20)
(0.0588024 0.0266102 3.71152e-19)
(0.00109517 0.000484626 -9.91314e-19)
(0.232063 0.123458 -8.72668e-21)
(1.09611 0.580592 7.10052e-21)
(1.29889 0.693321 -8.97761e-22)
(1.32884 0.720912 3.40017e-20)
(1.28448 0.711241 0)
(1.21601 0.688659 -4.78237e-20)
(1.14442 0.663113 1.71472e-19)
(1.07021 0.633884 1.18821e-19)
(0.993598 0.599 0)
(0.916286 0.556541 -6.52414e-19)
(0.851256 0.51186 5.38925e-19)
(0.808065 0.474318 0)
(0.781281 0.444477 1.63532e-19)
(0.749624 0.412475 -2.22131e-21)
(0.672163 0.358774 -3.5217e-19)
(0.525514 0.273999 1.37811e-19)
(0.344848 0.177094 0)
(0.179698 0.0914436 4.85147e-19)
(0.0598512 0.0302443 0)
(0.00210477 0.00107246 -4.68928e-19)
(0.231316 0.132492 1.26535e-20)
(1.08638 0.62195 1.5469e-20)
(1.28782 0.742941 8.13109e-22)
(1.31561 0.771317 0)
(1.27026 0.759968 -4.66615e-20)
(1.20127 0.735114 0)
(1.12879 0.707189 -1.71055e-19)
(1.05319 0.675461 -5.60237e-20)
(0.974662 0.637884 5.49192e-20)
(0.89486 0.592331 -3.22691e-19)
(0.827366 0.544579 5.57843e-20)
(0.782389 0.504493 0)
(0.754129 0.472124 -3.49232e-19)
(0.721088 0.437082 2.19989e-21)
(0.644115 0.379067 0)
(0.503304 0.289346 1.51445e-21)
(0.331452 0.187886 4.43476e-19)
(0.173474 0.0973494 -4.18951e-19)
(0.0582866 0.0323379 1.23548e-19)
(0.00240485 0.00133776 0)
(0.231046 0.141399 0)
(1.07717 0.661247 2.2673e-20)
(1.2762 0.789888 8.39876e-21)
(1.30184 0.818901 -2.48619e-21)
(1.25558 0.806035 -1.77752e-20)
(1.18619 0.779179 -1.07942e-19)
(1.11295 0.749164 6.37213e-20)
(1.0361 0.715252 -6.54282e-20)
(0.955766 0.675299 2.44173e-19)
(0.873519 0.626983 -5.15914e-19)
(0.803537 0.57636 -3.83584e-21)
(0.756693 0.53347 -1.53425e-19)
(0.72693 0.498212 5.66264e-19)
(0.692466 0.459922 -2.58534e-21)
(0.615381 0.397025 -2.72933e-19)
(0.47919 0.302004 -4.86261e-19)
(0.315384 0.195884 0)
(0.164217 0.100732 0)
(0.0546233 0.0329345 1.33081e-19)
(0.00214817 0.00127275 -7.81526e-20)
(0.231391 0.150328 2.24806e-20)
(1.06843 0.698348 -5.58763e-20)
(1.26435 0.834225 -9.20991e-21)
(1.28782 0.863746 0)
(1.24072 0.849497 -1.53271e-21)
(1.17102 0.820877 -1.0189e-19)
(1.09715 0.789046 1.56002e-19)
(1.01918 0.753248 2.59924e-19)
(0.937123 0.711242 3.18158e-19)
(0.852458 0.660511 -4.22009e-19)
(0.779884 0.607143 -4.62921e-19)
(0.731003 0.561188 4.10295e-19)
(0.699704 0.522902 0)
(0.66369 0.481043 -1.24016e-19)
(0.585956 0.41245 -2.94956e-19)
(0.453544 0.311752 -3.49106e-19)
(0.296919 0.200835 -4.12895e-19)
(0.152301 0.101524 1.21973e-19)
(0.0491832 0.0321081 -7.16993e-20)
(0.00155162 0.00100078 2.80056e-22)
(0.231866 0.159183 0)
(1.06036 0.733806 0)
(1.25248 0.876064 2.52809e-21)
(1.27377 0.905962 0)
(1.22591 0.890442 4.65757e-20)
(1.15597 0.860265 7.17541e-20)
(1.08158 0.826864 0)
(1.0026 0.789463 3.12853e-20)
(0.918913 0.745716 5.32123e-19)
(0.831846 0.692925 -9.69929e-19)
(0.756507 0.636924 0)
(0.705365 0.587816 -2.63931e-19)
(0.672416 0.546472 -3.05773e-21)
(0.634577 0.500322 -2.42706e-21)
(0.555858 0.425033 3.15272e-19)
(0.426839 0.318425 -2.06633e-22)
(0.276421 0.202627 -8.8855e-19)
(0.138377 0.0997313 2.62202e-19)
(0.0425161 0.0299372 7.74763e-20)
(0.000733683 0.000532425 0)
(0.232408 0.167888 -1.01754e-19)
(1.05267 0.767594 -4.47394e-20)
(1.24066 0.91548 -4.57744e-20)
(1.25984 0.945655 5.13269e-21)
(1.21132 0.92894 6.73506e-20)
(1.14122 0.897406 0)
(1.0664 0.862662 9.61282e-20)
(0.986508 0.823919 -6.93591e-20)
(0.901282 0.778737 3.88347e-21)
(0.811831 0.724239 7.12618e-20)
(0.733518 0.665781 5.99593e-19)
(0.679828 0.613669 -9.26697e-20)
(0.644945 0.56914 -3.48628e-19)
(0.604856 0.517489 -1.44244e-19)
(0.525149 0.434479 1.71088e-19)
(0.399549 0.321852 -1.75756e-23)
(0.254632 0.201131 2.3914e-19)
(0.123369 0.0955198 -5.63698e-19)
(0.0354453 0.0267604 6.66186e-19)
(-0.000188377 -6.67912e-05 9.71511e-20)
(0.232837 0.176326 4.03985e-20)
(1.04539 0.79982 -2.64157e-20)
(1.22903 0.952568 6.23139e-21)
(1.24617 0.982923 1.46166e-20)
(1.19708 0.965102 -7.60868e-21)
(1.12688 0.932372 -1.27776e-19)
(1.05173 0.896494 2.88374e-20)
(0.971026 0.856638 -2.8998e-19)
(0.884356 0.810309 -5.88387e-19)
(0.792534 0.754448 -5.78958e-19)
(0.711054 0.693843 0)
(0.65445 0.639071 -4.06082e-19)
(0.61714 0.591007 5.0201e-19)
(0.574227 0.532291 0)
(0.493811 0.440589 -3.66253e-19)
(0.372005 0.321635 2.18019e-19)
(0.232651 0.196117 -2.56878e-19)
(0.108602 0.0892754 -3.03049e-19)
(0.0287299 0.0230127 -5.36197e-19)
(-0.00103202 -0.000702437 -4.18035e-19)
(0.233594 0.184629 -4.74051e-20)
(1.03837 0.830462 2.83004e-20)
(1.21764 0.987401 6.09713e-20)
(1.23285 1.01785 2.84489e-20)
(1.18328 0.999022 2.02583e-20)
(1.11304 0.965253 -7.18199e-20)
(1.03765 0.928412 9.557e-20)
(0.956234 0.887661 -2.99303e-19)
(0.868217 0.840453 -3.48924e-19)
(0.774067 0.783565 6.06783e-19)
(0.68925 0.721251 1.31716e-18)
(0.62932 0.66427 0)
(0.588867 0.612104 0)
(0.542384 0.544714 -1.65963e-19)
(0.461549 0.443228 0)
(0.34424 0.316904 4.68479e-19)
(0.211666 0.186828 5.52001e-19)
(0.0960183 0.0810606 0)
(0.0235988 0.0191689 0)
(-0.00168391 -0.00123612 4.48861e-19)
(0.234 0.192493 5.58494e-20)
(1.03162 0.859509 4.45892e-20)
(1.20656 1.0201 4.5231e-20)
(1.21994 1.05057 -3.57789e-20)
(1.16998 1.0308 1.43359e-20)
(1.09977 0.996125 7.74883e-20)
(1.02422 0.958477 -1.3196e-19)
(0.942195 0.917015 -2.92254e-22)
(0.852943 0.869175 -5.04178e-21)
(0.756522 0.811592 -4.95669e-21)
(0.668263 0.748119 6.78446e-19)
(0.604559 0.689397 0)
(0.560081 0.632493 5.07594e-19)
(0.509074 0.555065 3.53973e-19)
(0.427645 0.442463 8.52793e-19)
(0.315606 0.306447 2.52054e-19)
(0.192849 0.170957 -2.96928e-19)
(0.0895107 0.0684132 -1.74417e-19)
(0.0253905 0.0142942 0)
(-0.000323774 -0.00093914 4.81963e-19)
(0.234707 0.200364 -1.29919e-19)
(1.02512 0.887064 0)
(1.19578 1.05072 5.77166e-20)
(1.20746 1.08116 -3.35559e-20)
(1.15723 1.06055 -3.98887e-21)
(1.08711 1.02508 -8.89116e-20)
(1.01148 0.986747 2.60298e-19)
(0.928944 0.944737 -2.41286e-20)
(0.838571 0.896483 0)
(0.739976 0.838517 -6.71081e-19)
(0.648243 0.774499 -1.47595e-18)
(0.580325 0.714495 5.99833e-20)
(0.530889 0.652318 6.99649e-19)
(0.474191 0.563969 0)
(0.39098 0.438922 5.74845e-19)
(0.283865 0.289421 0)
(0.174563 0.143444 0)
(0.0931349 0.0382611 -1.88426e-19)
(0.0544847 -0.00248313 0)
(0.0283084 0.0116756 1.29077e-19)
(0.235036 0.207637 -1.48593e-19)
(1.01883 0.913448 0)
(1.18529 1.07946 9.98458e-20)
(1.19538 1.10986 0)
(1.145 1.08852 -2.59479e-21)
(1.07498 1.05239 0)
(0.999381 1.01353 1.34707e-20)
(0.916385 0.971164 4.13728e-20)
(0.824983 0.92274 4.37681e-20)
(0.724268 0.864737 -7.37042e-19)
(0.629015 0.800841 4.44656e-20)
(0.556396 0.740089 4.81866e-19)
(0.500949 0.672276 6.82322e-19)
(0.436985 0.572301 9.18063e-20)
(0.349611 0.434161 4.49994e-19)
(0.244275 0.2669 0)
(0.145204 0.100592 6.24792e-19)
(0.0778651 -0.0111393 -3.65953e-19)
(0.0433186 0.0454196 4.2455e-19)
(-0.0690329 0.435617 -5.00864e-19)
(0.235346 0.214713 1.2504e-19)
(1.01248 0.938443 1.87585e-19)
(1.175 1.10665 0)
(1.18353 1.13713 5.0603e-21)
(1.13309 1.11529 1.72683e-20)
(1.06315 1.07876 1.20309e-19)
(0.987596 1.03964 9.24118e-20)
(0.904108 0.997232 0)
(0.811646 0.949033 2.92455e-19)
(0.708736 0.891567 -3.87374e-20)
(0.609675 0.828632 0)
(0.531533 0.767774 0)
(0.468436 0.693905 6.10863e-19)
(0.395316 0.580994 -2.83314e-19)
(0.300351 0.43028 -4.55356e-19)
(0.192011 0.242645 0)
(0.0846089 0.102988 3.14351e-19)
(0.0045185 0.439731 -3.63876e-19)
(0.0337827 1.88825 -2.00183e-19)
(0.0631755 2.81064 -2.55396e-19)
(0.235468 0.22095 -9.63464e-20)
(1.00628 0.962234 -2.45136e-19)
(1.16493 1.13226 6.18809e-20)
(1.17193 1.16282 4.29378e-20)
(1.12152 1.14062 0)
(1.05166 1.10389 7.23506e-20)
(0.976324 1.06474 1.29051e-19)
(0.892305 1.02251 -2.02581e-20)
(0.798827 0.974848 4.35501e-20)
(0.693763 0.918409 7.04036e-19)
(0.590818 0.857195 7.47448e-19)
(0.506657 0.796965 5.40064e-19)
(0.434289 0.717269 6.14091e-19)
(0.350919 0.589223 -6.64715e-19)
(0.248819 0.430729 -6.86921e-19)
(0.128028 0.280739 0)
(0.0450354 0.828922 0)
(0.102156 2.54966 1.74313e-19)
(0.103169 3.20065 0)
(0.106256 3.38791 4.17615e-19)
(0.23815 0.226643 0)
(1.0008 0.985018 0)
(1.15485 1.15614 0)
(1.16033 1.18677 1.44592e-20)
(1.10997 1.16429 1.90023e-20)
(1.0403 1.12765 3.92922e-20)
(0.96546 1.08874 8.40057e-20)
(0.880935 1.0469 -1.99012e-20)
(0.786497 1.00005 3.67979e-19)
(0.679386 0.945141 -9.33341e-21)
(0.572598 0.886388 1.47871e-18)
(0.482082 0.827351 -6.21592e-20)
(0.398779 0.743563 7.44978e-20)
(0.306474 0.594832 9.60339e-20)
(0.185861 0.444224 -4.63177e-21)
(0.101747 0.960568 1.83214e-21)
(0.141603 2.71796 -9.15534e-19)
(0.149924 3.29208 -3.44574e-19)
(0.138584 3.426 1.7949e-19)
(0.125724 3.4483 -2.00362e-19)
(0.156179 0.183299 5.88839e-20)
(0.990083 1.00956 0)
(1.14444 1.17851 -1.31633e-19)
(1.14928 1.20944 -1.25474e-19)
(1.09929 1.1871 6.92722e-20)
(1.03001 1.15073 -3.56311e-20)
(0.954968 1.11169 -8.80213e-20)
(0.870115 1.07052 2.27484e-19)
(0.774825 1.02482 -3.02833e-19)
(0.665896 0.971946 0)
(0.555409 0.916358 7.27784e-19)
(0.458376 0.858681 -4.41609e-19)
(0.36276 0.775908 0)
(0.256123 0.599929 8.95876e-20)
(0.148199 0.761333 2.14819e-19)
(0.157297 2.48847 -2.5083e-19)
(0.214827 3.32293 2.81984e-19)
(0.194505 3.43935 1.52636e-19)
(0.161696 3.461 1.7208e-19)
(0.139717 3.47133 2.75674e-19)
(0.281508 0.265428 -1.05862e-19)
(0.975117 1.01972 0)
(1.12651 1.20407 1.4812e-19)
(1.13484 1.24055 1.4755e-19)
(1.08223 1.22024 -9.20165e-20)
(1.01227 1.18429 1.10733e-20)
(0.936307 1.14688 9.06624e-20)
(0.850949 1.10694 1.7718e-20)
(0.754393 1.06343 2.92122e-19)
(0.642828 1.01459 6.14041e-19)
(0.527403 0.965751 4.13612e-20)
(0.419595 0.911482 3.93494e-19)
(0.299059 0.81734 6.99127e-20)
(0.214695 0.936955 -8.82631e-20)
(0.231229 2.33742 -2.01049e-19)
(0.292764 3.32579 1.94701e-19)
(0.275845 3.46899 -2.16262e-19)
(0.240178 3.49085 -1.2515e-19)
(0.202815 3.51856 -1.07759e-19)
(0.151187 3.51252 -1.25773e-20)
(0.269488 0.262371 0)
(0.972959 1.04259 4.62851e-20)
(1.11841 1.22766 -3.16484e-20)
(1.12448 1.26424 -1.8837e-20)
(1.07164 1.24351 -7.0478e-20)
(1.00168 1.2078 -4.78166e-21)
(0.925402 1.17055 -5.00831e-20)
(0.839867 1.13142 1.60754e-20)
(0.74283 1.08939 -3.0613e-19)
(0.630106 1.04351 -1.3964e-20)
(0.512081 0.999429 -1.32394e-18)
(0.399501 0.948256 5.60731e-20)
(0.284676 0.883453 -6.61304e-20)
(0.25634 1.47997 -8.20119e-20)
(0.331878 3.09686 1.80089e-20)
(0.351881 3.46685 4.99028e-22)
(0.311315 3.52341 3.20379e-19)
(0.273778 3.5499 1.58872e-19)
(0.224902 3.57343 -4.38171e-20)
(0.165742 3.56944 -6.11126e-20)
(0.253212 0.260829 1.20396e-19)
(0.969229 1.06816 3.1931e-19)
(1.10989 1.25337 -9.12532e-20)
(1.11355 1.28933 -7.10428e-20)
(1.06046 1.26813 0)
(0.990662 1.23249 2.67697e-20)
(0.914373 1.19549 -5.72888e-20)
(0.828937 1.15713 1.43186e-20)
(0.731737 1.11667 -3.39616e-20)
(0.618373 1.07402 -5.61559e-19)
(0.498518 1.03473 -6.13795e-19)
(0.383083 0.986521 -4.61464e-19)
(0.283441 1.01155 -5.02403e-19)
(0.325606 2.19194 5.17852e-19)
(0.41878 3.37535 4.37342e-19)
(0.396322 3.52495 0)
(0.350454 3.57002 0)
(0.312239 3.611 -3.48288e-20)
(0.261004 3.67146 0)
(0.178032 3.64758 -4.28191e-20)
(0.242466 0.262754 -1.83886e-19)
(0.96353 1.09484 -2.75551e-19)
(1.09995 1.28029 0)
(1.10126 1.31518 6.07015e-21)
(1.04802 1.29337 -8.92606e-20)
(0.978531 1.25767 6.39587e-20)
(0.902561 1.22095 -2.78359e-20)
(0.817427 1.18328 9.18974e-21)
(0.720301 1.14432 -2.21517e-19)
(0.606703 1.10486 2.85153e-20)
(0.485889 1.07017 0)
(0.366249 1.02709 0)
(0.306709 1.26467 -4.61255e-19)
(0.408987 2.8718 1.88259e-19)
(0.490887 3.48421 2.43749e-19)
(0.442883 3.55787 0)
(0.402162 3.62159 -2.21403e-20)