/*--------------------------------*- C++ -*----------------------------------*\
  =========                 |
  \\      /  F ield         | OpenFOAM: The Open Source CFD Toolbox
   \\    /   O peration     | Website:  https://openfoam.org
    \\  /    A nd           | Version:  9
     \\/     M anipulation  |
\*---------------------------------------------------------------------------*/
FoamFile
{
    format      ascii;
    class       volScalarField;
    location    "12";
    object      p;
}
// * * * * * * * * * * * * * * * * * * * * * * * * * * * * * * * * * * * * * //

dimensions      [0 2 -2 0 0 0 0];

internalField   nonuniform List<scalar> 
8800
(
0.439192
0.391449
0.352849
0.323938
0.303177
0.288472
0.278022
0.270675
0.265931
0.263818
0.264841
0.268684
0.274969
0.283953
0.296465
0.313993
0.338618
0.372444
0.414859
0.473557
0.27026
0.277949
0.285598
0.289007
0.287628
0.282727
0.276436
0.270517
0.26589
0.263036
0.262594
0.264796
0.268932
0.274523
0.280952
0.286923
0.290334
0.289464
0.283826
0.275019
0.248562
0.254789
0.259034
0.262179
0.264419
0.265204
0.264279
0.262353
0.260429
0.259435
0.260138
0.262133
0.264504
0.26629
0.266561
0.265061
0.262439
0.258809
0.25414
0.250344
0.242366
0.245097
0.24818
0.250935
0.252888
0.254314
0.255279
0.255563
0.255332
0.255201
0.25565
0.256405
0.256806
0.256421
0.255382
0.253861
0.251602
0.248595
0.245905
0.24441
0.236957
0.238443
0.240644
0.243188
0.245437
0.247147
0.248366
0.249283
0.249951
0.250416
0.25072
0.250744
0.250376
0.249634
0.248409
0.246574
0.24424
0.241791
0.240148
0.239355
0.232074
0.232952
0.234894
0.237282
0.239618
0.241789
0.243574
0.244859
0.245746
0.24637
0.246729
0.246681
0.246126
0.24496
0.243204
0.241113
0.238856
0.236635
0.235351
0.234961
0.229348
0.2298
0.231164
0.232944
0.234666
0.23623
0.237731
0.239177
0.240411
0.24132
0.241688
0.241464
0.240754
0.239739
0.238544
0.237108
0.235458
0.233875
0.233046
0.232887
0.22794
0.228186
0.228962
0.230073
0.231337
0.232767
0.234208
0.235539
0.236737
0.23772
0.238237
0.238196
0.237725
0.236892
0.235794
0.234695
0.233716
0.232847
0.232408
0.232325
0.226121
0.22626
0.226672
0.227331
0.22808
0.22899
0.230142
0.2314
0.232664
0.233784
0.234459
0.23457
0.234274
0.233761
0.233256
0.232792
0.232277
0.231865
0.231652
0.231597
0.223413
0.223493
0.223788
0.224301
0.224948
0.225621
0.226615
0.227742
0.228964
0.23019
0.231096
0.231519
0.231579
0.231415
0.231248
0.230963
0.230667
0.230412
0.230298
0.230268
0.220208
0.220249
0.220477
0.220919
0.221436
0.222303
0.223168
0.22427
0.225572
0.226984
0.228171
0.228893
0.229241
0.229351
0.229259
0.2292
0.229026
0.228873
0.228823
0.228809
0.216745
0.21677
0.216955
0.21734
0.217872
0.218569
0.219469
0.220622
0.222049
0.223711
0.225252
0.22634
0.227022
0.227419
0.227599
0.227645
0.227599
0.227548
0.227542
0.227533
0.212945
0.212971
0.213129
0.213466
0.213978
0.21469
0.215662
0.216956
0.218613
0.220632
0.222607
0.224091
0.225097
0.225744
0.226128
0.226337
0.226432
0.226477
0.226504
0.226495
0.208684
0.208709
0.20887
0.209202
0.209728
0.2105
0.211595
0.213099
0.215087
0.217578
0.220092
0.222057
0.223424
0.224356
0.224959
0.225332
0.225552
0.225676
0.225727
0.225717
0.203862
0.203886
0.204072
0.204438
0.205032
0.205925
0.20722
0.209033
0.21147
0.214569
0.217745
0.220257
0.22209
0.223336
0.224168
0.224704
0.225037
0.225228
0.225302
0.22529
0.198374
0.198403
0.198623
0.199061
0.199771
0.200852
0.202434
0.204669
0.207697
0.211581
0.215598
0.218822
0.221141
0.222754
0.223841
0.224552
0.225
0.225256
0.225355
0.225341
0.192062
0.192099
0.192376
0.19292
0.193801
0.195148
0.197122
0.199918
0.203717
0.2086
0.213658
0.217719
0.220659
0.222709
0.224095
0.225005
0.225581
0.225909
0.226035
0.226018
0.184712
0.184758
0.185108
0.185801
0.186938
0.188652
0.191147
0.194677
0.199471
0.205619
0.211974
0.217069
0.220757
0.223331
0.225074
0.226219
0.226942
0.227354
0.227512
0.227491
0.176036
0.176096
0.176547
0.177449
0.178912
0.181106
0.184301
0.188813
0.194892
0.20264
0.210606
0.216968
0.221567
0.224776
0.226951
0.228379
0.229279
0.22979
0.229985
0.22996
0.165631
0.165711
0.166304
0.167486
0.169399
0.172252
0.176394
0.182178
0.189907
0.199674
0.209632
0.217542
0.223248
0.22723
0.229931
0.231707
0.232825
0.233457
0.233695
0.23366
0.152957
0.153069
0.153856
0.15543
0.157963
0.161726
0.167119
0.17458
0.184448
0.196751
0.209151
0.218938
0.225984
0.230904
0.23425
0.236457
0.237846
0.238629
0.238925
0.238876
0.13723
0.13739
0.138455
0.140599
0.14402
0.149031
0.156148
0.165871
0.178491
0.193942
0.209297
0.221331
0.229985
0.23604
0.240175
0.242919
0.244653
0.245614
0.245974
0.245914
0.117265
0.117496
0.119001
0.122032
0.126779
0.133631
0.143196
0.155939
0.172071
0.191375
0.210238
0.224912
0.235471
0.242896
0.248004
0.251427
0.253617
0.254839
0.255276
0.255197
0.0911724
0.091527
0.093806
0.0983381
0.105204
0.114867
0.127918
0.144714
0.165291
0.189222
0.212152
0.229857
0.242631
0.2517
0.25802
0.26232
0.265114
0.266693
0.267258
0.267151
0.0557994
0.0564544
0.060296
0.0676204
0.0780762
0.0921171
0.110158
0.132318
0.158374
0.187698
0.215199
0.23628
0.251566
0.262579
0.270423
0.275904
0.279567
0.281666
0.282407
0.282259
0.00491088
0.00687472
0.0147511
0.0278094
0.0445867
0.0653782
0.0903125
0.119241
0.151747
0.187089
0.219515
0.244204
0.26223
0.275458
0.285168
0.292245
0.297223
0.300254
0.301349
0.301139
-0.071687
-0.0614119
-0.0433513
-0.0200243
0.00629428
0.0360798
0.0694124
0.106114
0.145771
0.18769
0.225507
0.254247
0.275492
0.291479
0.30369
0.313153
0.32041
0.325354
0.327515
0.327724
-0.153251
-0.130532
-0.101809
-0.0681867
-0.0321616
0.00668082
0.0484499
0.0930765
0.140263
0.189468
0.23369
0.267539
0.29299
0.312643
0.328206
0.340799
0.350995
0.359722
0.364102
0.364464
-0.21643
-0.191487
-0.154494
-0.11271
-0.0682087
-0.0210711
0.028661
0.0808603
0.135236
0.19128
0.2413
0.279532
0.308344
0.330703
0.348472
0.362859
0.374473
0.383861
0.387869
0.388496
-0.267418
-0.24036
-0.198796
-0.151156
-0.10021
-0.0463281
0.0102573
0.069223
0.13014
0.192407
0.247523
0.289274
0.320437
0.34433
0.363046
0.377997
0.389994
0.399224
0.40352
0.40414
-0.308602
-0.280949
-0.235979
-0.184
-0.128117
-0.0688602
-0.00659353
0.0582033
0.12492
0.192722
0.252245
0.296878
0.329787
0.354694
0.373949
0.389103
0.401093
0.410116
0.414618
0.415243
-0.343478
-0.315563
-0.26821
-0.212792
-0.152899
-0.0891634
-0.0220618
0.0478123
0.119696
0.192567
0.256171
0.303381
0.337761
0.363429
0.382982
0.398145
0.410015
0.418815
0.423329
0.423964
-0.373957
-0.345989
-0.296887
-0.238673
-0.175428
-0.107868
-0.0365517
0.0378609
0.11448
0.192047
0.259422
0.309014
0.344748
0.371103
0.390943
0.406152
0.417942
0.426523
0.431011
0.431667
-0.401612
-0.373594
-0.323017
-0.262517
-0.196449
-0.125594
-0.0505418
0.0279568
0.108899
0.190889
0.261991
0.314032
0.351192
0.378316
0.398507
0.413818
0.42556
0.434044
0.438435
0.439106
-0.427236
-0.399114
-0.347368
-0.284891
-0.216393
-0.142677
-0.0643544
0.0178181
0.10283
0.189152
0.264037
0.318658
0.357391
0.385404
0.406046
0.421534
0.433286
0.441671
0.445937
0.44668
-0.451491
-0.423181
-0.37041
-0.306225
-0.235631
-0.159415
-0.0781552
0.00740056
0.096233
0.186765
0.265514
0.322934
0.363468
0.392559
0.41379
0.42955
0.441375
0.449696
0.453826
0.454587
-0.474642
-0.446119
-0.392416
-0.326842
-0.254375
-0.175936
-0.0920641
-0.00344831
0.0889458
0.183604
0.266356
0.326844
0.369473
0.399883
0.42188
0.438034
0.450001
0.458298
0.462285
0.46301
-0.497038
-0.468192
-0.413684
-0.346883
-0.272786
-0.192412
-0.106219
-0.01483
0.0809
0.179567
0.266447
0.330297
0.375371
0.407406
0.430393
0.447093
0.459305
0.467631
0.471463
0.472105
-0.518702
-0.489558
-0.43447
-0.366447
-0.290942
-0.208883
-0.120638
-0.0267484
0.0720515
0.174569
0.265644
0.333158
0.38106
0.415085
0.439343
0.456779
0.469351
0.477749
0.481466
0.481942
-0.539712
-0.510236
-0.454617
-0.385559
-0.308847
-0.225322
-0.135299
-0.0392061
0.0623846
0.168548
0.263811
0.335239
0.386347
0.422777
0.448648
0.467069
0.480152
0.488692
0.492318
0.492591
-0.560132
-0.530332
-0.47416
-0.404231
-0.326497
-0.241719
-0.150169
-0.0521604
0.0519195
0.161452
0.260816
0.336315
0.390982
0.430267
0.458186
0.477896
0.491679
0.500413
0.503937
0.504004
-0.580012
-0.549841
-0.493126
-0.422447
-0.34384
-0.258016
-0.16518
-0.0655469
0.0406968
0.153267
0.256528
0.33614
0.394694
0.437342
0.467838
0.489197
0.503842
0.512782
0.5161
0.515989
-0.599182
-0.568672
-0.511466
-0.440162
-0.360819
-0.274134
-0.180252
-0.0792705
0.0288003
0.14404
0.250872
0.334499
0.397149
0.443658
0.477363
0.500916
0.516615
0.525679
0.528671
0.528343
-0.617642
-0.586807
-0.529162
-0.45732
-0.377376
-0.290005
-0.19529
-0.0932355
0.0163334
0.133819
0.243823
0.331208
0.397922
0.448662
0.486368
0.513013
0.530139
0.538963
0.541249
0.540683
-0.635416
-0.604195
-0.546195
-0.473883
-0.39345
-0.305548
-0.2102
-0.107331
0.00341095
0.12271
0.235376
0.326147
0.396663
0.451697
0.494178
0.525313
0.545026
0.553158
0.55345
0.552506
-0.652373
-0.620864
-0.562503
-0.489795
-0.408986
-0.320686
-0.224888
-0.121441
-0.00983822
0.110852
0.225618
0.319233
0.393118
0.452034
0.499675
0.537021
0.562037
0.570831
0.566568
0.563741
-0.668611
-0.63678
-0.578113
-0.505076
-0.424017
-0.335468
-0.239411
-0.135621
-0.0234735
0.0981807
0.214465
0.310258
0.387021
0.448941
0.501076
0.545848
0.58008
0.59702
0.591259
0.567758
-0.684083
-0.651965
-0.593134
-0.519895
-0.438807
-0.350196
-0.254157
-0.150337
-0.0380308
0.0840441
0.201211
0.298384
0.377476
0.441192
0.495163
0.545875
0.587778
0.606508
0.593464
0.56563
-0.698665
-0.666612
-0.607404
-0.534005
-0.453085
-0.364544
-0.268902
-0.165261
-0.0531775
0.0687798
0.186094
0.283562
0.364118
0.428697
0.478181
0.527133
0.562456
0.568548
0.50193
0.45678
-0.711764
-0.681384
-0.620504
-0.546847
-0.466224
-0.378088
-0.283377
-0.180186
-0.0686934
0.0525768
0.169183
0.265812
0.346437
0.412322
0.452201
0.479129
0.499661
0.459825
0.38299
0.332111
-0.763994
-0.692994
-0.632298
-0.559906
-0.479575
-0.392117
-0.297667
-0.195355
-0.0848728
0.0350982
0.150116
0.244909
0.322747
0.392939
0.407261
0.408672
0.380795
0.31329
0.224364
0.175032
-0.720719
-0.706927
-0.648693
-0.578466
-0.498485
-0.411881
-0.318964
-0.218102
-0.109542
0.00778722
0.118949
0.209076
0.279174
0.33498
0.340952
0.214795
0.0935052
0.0100686
-0.0775692
-0.0294573
-0.747564
-0.720606
-0.663179
-0.592546
-0.513326
-0.427396
-0.334788
-0.235128
-0.128222
-0.0133148
0.0942325
0.17943
0.24199
0.270124
0.211822
0.0358103
-0.12655
-0.240236
-0.363599
-0.288332
-0.767367
-0.73678
-0.679415
-0.608315
-0.529516
-0.444123
-0.352183
-0.253936
-0.149014
-0.0370615
0.0662398
0.145342
0.197707
0.198604
0.0702164
-0.166283
-0.370075
-0.525764
-0.70373
-0.634856
-0.785883
-0.753909
-0.69572
-0.62415
-0.545562
-0.460715
-0.369811
-0.273113
-0.170346
-0.0616619
0.0368278
0.109458
0.149406
0.110316
-0.0971001
-0.375215
-0.640217
-0.876088
-1.13936
-1.11453
-0.802902
-0.770988
-0.712253
-0.640394
-0.562017
-0.477803
-0.388061
-0.293017
-0.192591
-0.0874663
0.00580478
0.071834
0.095469
0.00947056
-0.259873
-0.571098
-0.893785
-1.18725
-1.53955
-1.91413
-0.819487
-0.788013
-0.729193
-0.657306
-0.579168
-0.495598
-0.407008
-0.313649
-0.215668
-0.114234
-0.026369
0.0325527
0.0399513
-0.0974406
-0.407153
-0.728873
-1.05856
-1.34179
-1.46878
-1.66663
-0.836253
-0.805223
-0.746719
-0.675026
-0.597277
-0.514488
-0.427187
-0.335748
-0.240577
-0.14333
-0.0614699
-0.010513
-0.0218378
-0.223108
-0.53819
-0.850221
-1.12453
-1.30166
-1.34061
-1.37445
-0.85344
-0.822853
-0.764724
-0.693483
-0.616286
-0.534477
-0.448736
-0.359581
-0.267615
-0.175167
-0.0998888
-0.0576622
-0.0988363
-0.34611
-0.654321
-0.954747
-1.18083
-1.26277
-1.29152
-1.29808
-0.871174
-0.840931
-0.783141
-0.712464
-0.635962
-0.555374
-0.471492
-0.384996
-0.29673
-0.209701
-0.141506
-0.109406
-0.181278
-0.462056
-0.757545
-1.06026
-1.27123
-1.29114
-1.28557
-1.28357
-0.889215
-0.859302
-0.801869
-0.731735
-0.65608
-0.576935
-0.495192
-0.411752
-0.327721
-0.246656
-0.186457
-0.166877
-0.271444
-0.572299
-0.84208
-1.14189
-1.36595
-1.32026
-1.2891
-1.27645
-0.907225
-0.877619
-0.820569
-0.750986
-0.676331
-0.598789
-0.51959
-0.439696
-0.360441
-0.28588
-0.234729
-0.226461
-0.36747
-0.677468
-0.890531
-1.09706
-1.25158
-1.25013
-1.23497
-1.22769
-0.924516
-0.895213
-0.838745
-0.769705
-0.696178
-0.620526
-0.544162
-0.46838
-0.394477
-0.326631
-0.285961
-0.285878
-0.483084
-0.794347
-0.910934
-0.867097
-1.00942
-1.13998
-1.20673
-1.21823
-0.940449
-0.91151
-0.855608
-0.787226
-0.714873
-0.641328
-0.568223
-0.497123
-0.42897
-0.368349
-0.338994
-0.34966
-0.625294
-1.00022
-1.14494
-0.907117
-1.06116
-1.26518
-1.38255
-1.41072
-0.95426
-0.925734
-0.870298
-0.802506
-0.731487
-0.660296
-0.590936
-0.5251
-0.463278
-0.410087
-0.390514
-0.422718
-0.80095
-1.37341
-1.92727
-1.96464
-1.86797
-1.84019
-1.856
-1.87618
-0.964558
-0.936576
-0.881654
-0.814449
-0.744893
-0.676344
-0.611282
-0.55142
-0.497029
-0.450764
-0.438856
-0.494622
-0.957709
-1.77185
-2.77006
-3.35633
-3.18272
-2.84304
-2.6008
-2.54553
-0.969872
-0.942569
-0.888221
-0.82171
-0.753756
-0.688132
-0.627915
-0.575648
-0.531281
-0.491478
-0.478275
-0.563491
-0.999227
-1.80896
-2.83356
-3.65327
-3.77167
-3.53028
-3.16257
-2.96654
-0.968595
-0.942038
-0.888398
-0.822751
-0.756578
-0.694141
-0.63945
-0.596787
-0.567318
-0.53929
-0.518795
-0.595293
-0.891768
-1.43924
-2.02285
-2.51301
-2.69649
-2.65826
-2.46185
-2.33141
-0.959132
-0.933273
-0.880545
-0.816042
-0.751855
-0.692894
-0.644894
-0.615103
-0.609952
-0.613971
-0.594329
-0.587938
-0.694094
-0.79962
-0.85676
-0.876558
-0.831622
-0.744163
-0.61444
-0.525146
-0.939732
-0.914645
-0.863166
-0.800242
-0.738232
-0.683004
-0.642589
-0.63012
-0.666434
-0.760564
-0.808821
-0.678157
-0.475457
-0.184703
0.228415
0.642756
0.962416
1.16121
1.27073
1.31728
-0.909065
-0.88504
-0.835097
-0.774315
-0.714681
-0.663049
-0.630547
-0.640387
-0.745984
-1.04348
-1.28592
-0.930295
-0.431659
0.194992
0.89162
1.46542
1.90534
2.14233
2.24043
2.27164
-0.866761
-0.843011
-0.795086
-0.73751
-0.680353
-0.631587
-0.605423
-0.637018
-0.833702
-1.44869
-2.06575
-1.38466
-0.528582
0.293518
1.04789
1.61852
2.0096
2.19685
2.26962
2.28855
-0.811084
-0.789071
-0.744523
-0.689565
-0.63472
-0.587278
-0.562073
-0.599297
-0.823085
-1.60231
-2.44714
-1.57305
-0.613107
0.27484
0.953819
1.39945
1.67087
1.79999
1.86028
1.87266
-0.741983
-0.721949
-0.681457
-0.630434
-0.57789
-0.529958
-0.499141
-0.51858
-0.690562
-1.22408
-1.63237
-1.01222
-0.278477
0.389413
0.845453
1.12587
1.28929
1.38238
1.42678
1.43209
-0.660799
-0.642606
-0.607169
-0.560869
-0.511014
-0.462026
-0.421416
-0.406915
-0.461361
-0.633871
-0.656464
-0.273811
0.167812
0.524059
0.761183
0.914291
1.01388
1.07815
1.11361
1.12474
-0.570807
-0.557969
-0.525382
-0.483633
-0.437265
-0.388304
-0.339657
-0.296829
-0.267237
-0.237759
-0.128759
0.117681
0.354583
0.522442
0.64301
0.728655
0.79108
0.834002
0.857315
0.863817
-0.460943
-0.454237
-0.431222
-0.397767
-0.358599
-0.314552
-0.266088
-0.214096
-0.157301
-0.0818535
0.0392059
0.205299
0.354402
0.460602
0.537919
0.592863
0.631874
0.659531
0.676322
0.679081
-0.356335
-0.353129
-0.337047
-0.311979
-0.281361
-0.245019
-0.202239
-0.151969
-0.0909498
-0.00921456
0.0986421
0.216919
0.318096
0.39181
0.444246
0.480438
0.504743
0.519742
0.526841
0.528328
-0.259855
-0.258186
-0.248383
-0.230884
-0.208426
-0.18043
-0.145544
-0.101919
-0.046065
0.0287515
0.118753
0.206033
0.277241
0.329145
0.365166
0.38895
0.403719
0.412116
0.415835
0.416063
-0.171842
-0.171526
-0.166306
-0.155972
-0.141452
-0.121785
-0.0953845
-0.0601622
-0.0132212
0.0496982
0.122236
0.188053
0.239791
0.27693
0.301974
0.317799
0.326935
0.331558
0.333247
0.333062
-0.0962787
-0.0967885
-0.0957096
-0.0917858
-0.0840827
-0.0716098
-0.0529384
-0.0261292
0.0112372
0.0619098
0.119104
0.168981
0.206962
0.233654
0.25111
0.261586
0.267213
0.269718
0.270457
0.270182
-0.0393478
-0.0402075
-0.0415193
-0.0416528
-0.0389157
-0.0319549
-0.0193796
0.000350526
0.0290672
0.0685834
0.112712
0.150338
0.178385
0.197601
0.209823
0.216959
0.220521
0.221861
0.222147
0.221865
-0.000938591
-0.00178989
-0.00383391
-0.00562014
-0.00545792
-0.00213299
0.00578999
0.0197914
0.0413214
0.0715911
0.105292
0.133526
0.154153
0.16812
0.176826
0.181625
0.183794
0.184428
0.184456
0.184202
0.0228697
0.0221962
0.0203187
0.0183489
0.0177102
0.019363
0.0243602
0.0340448
0.0498001
0.0725455
0.0979817
0.119156
0.134431
0.144477
0.150467
0.153628
0.154894
0.15506
0.154927
0.15471
0.0368497
0.036382
0.0349826
0.0333595
0.0325718
0.0334402
0.0368611
0.0437886
0.0552884
0.0721921
0.0912094
0.106872
0.11792
0.125078
0.129293
0.131371
0.132029
0.131924
0.131719
0.131545
0.0447833
0.0444719
0.0435292
0.0423751
0.041736
0.04218
0.0444305
0.0493632
0.0578116
0.0703164
0.0843692
0.0959227
0.104054
0.109243
0.112158
0.113492
0.113805
0.113592
0.113384
0.113248
0.0491141
0.0489023
0.0482676
0.0474695
0.0470203
0.0473386
0.0489254
0.05241
0.0585062
0.0677138
0.0781334
0.086642
0.0925189
0.0961732
0.0981741
0.0990261
0.099138
0.0988959
0.0987082
0.0986018
0.0510651
0.0509133
0.0504502
0.049854
0.0494988
0.0496906
0.0508182
0.0533578
0.0578085
0.0645313
0.0721357
0.0783162
0.0825619
0.0851745
0.0865583
0.0870977
0.0871055
0.086876
0.0867163
0.086632
0.0512298
0.0511189
0.0507673
0.0503023
0.0500104
0.0501122
0.0508839
0.0526813
0.0559001
0.0608107
0.0663763
0.0708809
0.0739404
0.0757821
0.0767242
0.0770557
0.0770078
0.0768014
0.076668
0.0766015
0.0500217
0.0499402
0.0496738
0.0493115
0.0490728
0.0491214
0.0496608
0.0509484
0.0532688
0.0568276
0.0608635
0.0641136
0.0662973
0.0675895
0.0682255
0.0684188
0.0683406
0.0681584
0.0680479
0.0679956
0.0477896
0.0477283
0.0475278
0.0472489
0.0470554
0.0470677
0.0474342
0.0483449
0.0500128
0.052584
0.055501
0.0578386
0.0593929
0.060294
0.060717
0.0608202
0.0607307
0.0605749
0.0604847
0.0604436
0.0448201
0.0447732
0.0446236
0.0444128
0.0442609
0.0442555
0.0445043
0.0451469
0.046338
0.0481861
0.0502832
0.0519535
0.0530502
0.0536715
0.0539472
0.0539935
0.0539035
0.0537724
0.0536987
0.0536662
0.0413296
0.0412931
0.0411805
0.041021
0.040902
0.0408867
0.0410533
0.0415032
0.0423495
0.0436707
0.0451685
0.0463539
0.0471221
0.0475456
0.0477204
0.0477319
0.0476484
0.0475401
0.0474803
0.0474546
0.0374692
0.0374404
0.0373543
0.0372326
0.0371383
0.0371172
0.037226
0.0375379
0.0381346
0.039072
0.0401355
0.0409706
0.0415034
0.0417882
0.0418948
0.0418856
0.0418103
0.0417209
0.0416724
0.0416521
0.0333436
0.0333208
0.0332541
0.0331598
0.033084
0.0330599
0.0331277
0.0333403
0.0337562
0.0344156
0.0351641
0.0357476
0.0361134
0.0363008
0.0363612
0.0363402
0.0362739
0.0362007
0.0361615
0.0361457
0.0290264
0.0290084
0.028956
0.0288818
0.0288196
0.0287935
0.0288323
0.0289738
0.0292605
0.0297202
0.0302412
0.0306437
0.0308909
0.031011
0.0310412
0.0310145
0.0309569
0.030897
0.0308653
0.0308529
0.0245693
0.024555
0.0245137
0.0244549
0.0244036
0.0243771
0.0243961
0.0244876
0.0246814
0.0249969
0.0253551
0.0256285
0.0257914
0.0258647
0.0258754
0.0258468
0.0257975
0.0257485
0.0257232
0.0257135
0.0200109
0.0199996
0.0199672
0.0199204
0.019878
0.0198527
0.0198589
0.0199158
0.0200436
0.0202552
0.020496
0.0206776
0.0207821
0.020824
0.0208226
0.0207943
0.0207527
0.0207132
0.0206931
0.0206856
0.0153785
0.01537
0.0153447
0.0153077
0.0152732
0.0152501
0.0152485
0.0152809
0.0153617
0.0154995
0.0156566
0.0157734
0.0158376
0.0158592
0.0158512
0.0158252
0.0157904
0.0157587
0.0157429
0.0157373
0.0106912
0.010685
0.0106656
0.010637
0.0106104
0.0105916
0.0105867
0.0106039
0.0106516
0.0107356
0.0108316
0.0109015
0.0109378
0.0109468
0.010937
0.0109156
0.0108884
0.0108636
0.0108516
0.0108478
0.00596163
0.00595737
0.00594417
0.0059255
0.00590844
0.00589638
0.00589218
0.00590004
0.00592447
0.00596751
0.0060166
0.00605146
0.00606834
0.00607106
0.00606374
0.00604957
0.00603147
0.00601467
0.00600634
0.00600368
0.00120061
0.00120037
0.00119968
0.00119475
0.00118952
0.00118555
0.00118294
0.00118236
0.00118436
0.00118956
0.00119757
0.00120491
0.0012091
0.00121039
0.00120911
0.00120589
0.00120141
0.00119596
0.00119283
0.00119273
-0.814341
-0.565075
-0.285574
-0.0602276
0.122366
0.270317
0.396209
0.502824
0.552884
0.530258
-0.368018
-0.199917
-0.0257867
0.123439
0.250149
0.356781
0.444034
0.506825
0.53974
0.550594
-0.0674285
0.0430057
0.158554
0.261255
0.349953
0.424515
0.483905
0.527319
0.557449
0.57421
0.139945
0.215248
0.29604
0.368709
0.432015
0.485617
0.529291
0.563498
0.590124
0.607648
0.294931
0.349
0.405847
0.459671
0.507076
0.548107
0.58273
0.610977
0.633723
0.651097
0.417683
0.457136
0.50162
0.54379
0.581956
0.615757
0.644919
0.669024
0.688415
0.705542
0.520996
0.553495
0.592064
0.628169
0.66161
0.691671
0.717701
0.739083
0.75563
0.772644
0.616387
0.647962
0.684817
0.719345
0.751099
0.779503
0.803827
0.823383
0.837477
0.854533
0.715921
0.750586
0.788958
0.824068
0.855454
0.88277
0.905649
0.92361
0.935994
0.953455
0.833484
0.872232
0.911879
0.947039
0.977204
1.00267
1.02363
1.03998
1.05181
1.06996
0.979951
1.01903
1.05579
1.08705
1.11324
1.13579
1.15522
1.17105
1.18371
1.20177
1.15601
1.18794
1.21449
1.23729
1.25757
1.27656
1.29449
1.31114
1.32665
1.34478
1.3452
1.36256
1.37781
1.39428
1.41036
1.42503
1.43838
1.45242
1.47004
1.49024
1.52722
1.53687
1.54852
1.55941
1.56876
1.57846
1.58939
1.60084
1.61227
1.62765
1.73474
1.73842
1.72349
1.7087
1.70257
1.70834
1.72685
1.7572
1.78941
1.81609
2.04103
1.90618
1.82968
1.78748
1.77003
1.77401
1.80146
1.85787
1.96051
2.18488
0.329782
0.327705
0.323214
0.314661
0.302554
0.290572
0.280498
0.272748
0.267235
0.263987
0.263474
0.265885
0.27062
0.277487
0.286562
0.297837
0.310271
0.321146
0.327221
0.330202
0.254006
0.259875
0.266334
0.270982
0.273617
0.273462
0.270913
0.26729
0.263906
0.261641
0.261309
0.263183
0.266451
0.270337
0.273779
0.27536
0.27417
0.270455
0.265086
0.258388
0.245339
0.247652
0.251216
0.25446
0.256795
0.258542
0.259534
0.259408
0.258483
0.25757
0.257543
0.25863
0.260047
0.26093
0.260689
0.259403
0.257486
0.254806
0.251275
0.248233
0.239596
0.240654
0.242736
0.24552
0.247925
0.249662
0.250908
0.251835
0.252387
0.252667
0.252958
0.253287
0.253364
0.252954
0.252105
0.250807
0.248852
0.24626
0.243741
0.242232
0.234367
0.23495
0.23643
0.238839
0.241313
0.243577
0.245359
0.246598
0.247473
0.248091
0.248528
0.248732
0.24853
0.247885
0.246666
0.244807
0.24254
0.240147
0.238146
0.237231
0.230401
0.230643
0.231748
0.233789
0.235909
0.237865
0.239702
0.241349
0.242662
0.243625
0.244211
0.244286
0.243826
0.242823
0.241412
0.239762
0.237876
0.235842
0.234206
0.233681
0.228623
0.228733
0.229391
0.230698
0.232181
0.233647
0.235085
0.236456
0.23773
0.238817
0.239531
0.239679
0.239313
0.238586
0.237607
0.236448
0.235156
0.233858
0.232882
0.2326
0.227137
0.227197
0.227544
0.228252
0.229114
0.230364
0.231626
0.232972
0.234281
0.235456
0.236309
0.236598
0.236369
0.235786
0.235006
0.234024
0.233332
0.232674
0.232205
0.23206
0.224859
0.224896
0.225102
0.22555
0.226165
0.226839
0.227737
0.228817
0.230024
0.231237
0.23225
0.232776
0.23284
0.232631
0.232316
0.232028
0.231664
0.231317
0.23108
0.231004
0.221847
0.221861
0.222007
0.222395
0.222952
0.223623
0.224427
0.225492
0.226692
0.227995
0.22921
0.230021
0.230376
0.23041
0.230319
0.230223
0.229981
0.229723
0.229573
0.229539
0.218509
0.218509
0.218614
0.21893
0.219423
0.220044
0.220848
0.221842
0.223079
0.224535
0.226022
0.227169
0.227862
0.22825
0.228402
0.22838
0.228334
0.228216
0.228156
0.228149
0.214898
0.214901
0.214979
0.215246
0.215687
0.216291
0.2171
0.218167
0.21954
0.221226
0.223073
0.224617
0.225663
0.226324
0.226715
0.22691
0.226978
0.22698
0.226988
0.226993
0.210879
0.210874
0.210963
0.211205
0.211624
0.21224
0.21311
0.214307
0.215901
0.217932
0.220238
0.222255
0.223694
0.22466
0.225285
0.225668
0.225885
0.226002
0.226065
0.226079
0.206352
0.206344
0.206443
0.206697
0.207142
0.207821
0.208813
0.210215
0.212128
0.214617
0.217509
0.220108
0.221973
0.223307
0.224193
0.224765
0.225122
0.225335
0.225443
0.225466
0.201214
0.201203
0.201316
0.201615
0.202131
0.202929
0.204114
0.205814
0.208162
0.211255
0.21489
0.218182
0.220639
0.222343
0.223512
0.224285
0.224781
0.225083
0.225233
0.225265
0.195335
0.195321
0.195461
0.195823
0.196455
0.197433
0.198893
0.201002
0.203929
0.207803
0.212377
0.216548
0.219643
0.221833
0.223335
0.224336
0.224983
0.22538
0.225576
0.225616
0.188533
0.188514
0.188695
0.189159
0.189953
0.191172
0.193003
0.19566
0.199349
0.204227
0.209983
0.21523
0.219123
0.221885
0.223783
0.225052
0.225877
0.226384
0.226633
0.226683
0.180561
0.180538
0.180773
0.181369
0.182375
0.183936
0.186281
0.189664
0.194332
0.20049
0.20773
0.214308
0.219177
0.222632
0.225007
0.226598
0.227637
0.228278
0.228592
0.228653
0.171082
0.171055
0.171366
0.17214
0.173447
0.175468
0.178494
0.182818
0.188772
0.196568
0.205662
0.213876
0.219937
0.224234
0.227187
0.229168
0.230467
0.231273
0.231668
0.231743
0.159625
0.159592
0.160014
0.161046
0.162765
0.165412
0.169341
0.174938
0.182573
0.19245
0.203845
0.214057
0.221565
0.226882
0.230537
0.23299
0.234602
0.235607
0.236095
0.236192
0.14551
0.145469
0.146061
0.147465
0.149774
0.1533
0.158501
0.165817
0.175631
0.188141
0.202369
0.214996
0.224244
0.230792
0.235302
0.238333
0.240326
0.241574
0.242185
0.242303
0.127761
0.127718
0.128581
0.130541
0.133716
0.138531
0.145516
0.155149
0.167834
0.183669
0.201344
0.216849
0.228165
0.236195
0.241751
0.245502
0.247977
0.249537
0.250316
0.250462
0.104914
0.104898
0.10621
0.109037
0.113549
0.120293
0.129852
0.14271
0.159164
0.179133
0.200918
0.219781
0.233514
0.243305
0.250144
0.254812
0.257921
0.259891
0.260877
0.261063
0.0745342
0.0746056
0.0767428
0.0811095
0.0878977
0.0977398
0.111158
0.128477
0.149774
0.174752
0.201298
0.223967
0.240447
0.252296
0.260697
0.266542
0.270511
0.273067
0.274341
0.274578
0.0321403
0.0324948
0.0365361
0.0441313
0.055165
0.0701776
0.0893378
0.112673
0.14001
0.170852
0.202717
0.229541
0.249039
0.26322
0.273492
0.280851
0.286018
0.289473
0.291214
0.291512
-0.0303781
-0.0284064
-0.0189236
-0.00445179
0.0144921
0.0377231
0.0649128
0.0959102
0.130395
0.167784
0.20533
0.236495
0.259165
0.275872
0.288283
0.297528
0.304349
0.309113
0.311695
0.312027
-0.105028
-0.101779
-0.0842848
-0.058605
-0.0290804
0.00363418
0.0395816
0.0787469
0.120889
0.165525
0.209734
0.246407
0.273438
0.293854
0.309567
0.321827
0.331525
0.338566
0.341358
0.342624
-0.181742
-0.172026
-0.146053
-0.110278
-0.0712341
-0.0293718
0.015172
0.0623811
0.112111
0.163972
0.214866
0.257025
0.288289
0.312218
0.331018
0.346069
0.358215
0.367522
0.372599
0.374675
-0.239592
-0.228691
-0.197693
-0.155487
-0.109102
-0.0597312
-0.00768093
0.046886
0.103686
0.162271
0.219249
0.26615
0.300767
0.327138
0.347707
0.364003
0.377001
0.386989
0.392895
0.39517
-0.286123
-0.274783
-0.240419
-0.193551
-0.141793
-0.0865892
-0.0283861
0.0324505
0.0954802
0.160111
0.22248
0.273315
0.310425
0.338338
0.359828
0.376659
0.389933
0.400068
0.406043
0.408297
-0.324327
-0.313041
-0.276657
-0.226216
-0.170265
-0.110427
-0.0471638
0.0190354
0.0875418
0.157558
0.224763
0.279093
0.318304
0.347421
0.369537
0.386613
0.399897
0.409975
0.415936
0.418118
-0.357257
-0.346103
-0.308269
-0.255094
-0.195694
-0.131929
-0.0643436
0.00649771
0.0798842
0.154858
0.226576
0.284097
0.325161
0.355274
0.377845
0.395061
0.408317
0.418328
0.424312
0.42636
-0.386496
-0.375469
-0.3366
-0.281212
-0.218988
-0.151915
-0.0805595
-0.00556104
0.0722712
0.1518
0.227731
0.288331
0.331232
0.362359
0.385428
0.402836
0.416117
0.426047
0.432067
0.434012
-0.413309
-0.402365
-0.362678
-0.305398
-0.240778
-0.170857
-0.0962119
-0.0175293
0.0643223
0.148158
0.228274
0.292041
0.33689
0.369135
0.392788
0.410452
0.423815
0.433729
0.439765
0.441605
-0.438377
-0.427476
-0.387042
-0.328159
-0.261499
-0.189116
-0.111602
-0.0296081
0.055992
0.143958
0.228235
0.295297
0.34228
0.375819
0.400192
0.418213
0.431713
0.441621
0.447685
0.449409
-0.462162
-0.451263
-0.41019
-0.34994
-0.281502
-0.20695
-0.126869
-0.0418793
0.0471718
0.139058
0.227498
0.29807
0.347455
0.382536
0.407818
0.426323
0.440043
0.450018
0.456031
0.457697
-0.485033
-0.474084
-0.432398
-0.370979
-0.300972
-0.22451
-0.142165
-0.0545003
0.0377195
0.13336
0.225968
0.300287
0.352396
0.389314
0.415742
0.434898
0.44894
0.459019
0.464991
0.466627
-0.50718
-0.49609
-0.45379
-0.391448
-0.320031
-0.24193
-0.157596
-0.0675283
0.0276014
0.126798
0.223554
0.301822
0.357002
0.396103
0.423967
0.44399
0.458506
0.468781
0.474704
0.476322
-0.528613
-0.517367
-0.474591
-0.41137
-0.338736
-0.259207
-0.173138
-0.0809528
0.0167936
0.119298
0.220131
0.302517
0.361111
0.402794
0.432448
0.453601
0.468767
0.479336
0.485245
0.486812
-0.549468
-0.538008
-0.494827
-0.430743
-0.357096
-0.276337
-0.188776
-0.0947536
0.00531472
0.110854
0.215586
0.302181
0.36451
0.409244
0.441109
0.463697
0.479702
0.490668
0.496597
0.498041
-0.56967
-0.558025
-0.514444
-0.44961
-0.37509
-0.29329
-0.204461
-0.108872
-0.00678275
0.10147
0.209862
0.30064
0.366941
0.415178
0.449739
0.474165
0.491253
0.502718
0.508682
0.509943
-0.589273
-0.577401
-0.533403
-0.467943
-0.392676
-0.310004
-0.220126
-0.123225
-0.0194264
0.0911917
0.202915
0.297734
0.368095
0.42017
0.458024
0.484845
0.503344
0.515358
0.521262
0.522296
-0.6081
-0.596107
-0.551669
-0.485688
-0.40979
-0.326399
-0.235687
-0.137726
-0.0325235
0.0800966
0.194739
0.293314
0.367688
0.423833
0.465615
0.495611
0.516021
0.528576
0.534141
0.534819
-0.626283
-0.614087
-0.569246
-0.502818
-0.426394
-0.342432
-0.251054
-0.152281
-0.0459652
0.0682938
0.185398
0.287297
0.365478
0.425752
0.471958
0.506157
0.529481
0.542645
0.547115
0.547041
-0.643678
-0.631277
-0.586115
-0.519283
-0.442416
-0.358019
-0.266144
-0.166766
-0.0596251
0.0558836
0.174981
0.279685
0.361261
0.425397
0.476202
0.515732
0.54389
0.558859
0.560864
0.558345
-0.660343
-0.647779
-0.602225
-0.535033
-0.457819
-0.373101
-0.280878
-0.181099
-0.0733839
0.0430305
0.163621
0.270493
0.354948
0.422331
0.477205
0.522725
0.558303
0.579184
0.580509
0.569011
-0.676214
-0.663512
-0.617676
-0.550201
-0.472788
-0.387939
-0.295576
-0.195675
-0.0877
0.0292034
0.150728
0.259073
0.345803
0.41581
0.473332
0.524239
0.568841
0.600027
0.605388
0.597872
-0.691273
-0.678332
-0.632481
-0.564751
-0.487323
-0.402541
-0.310211
-0.210495
-0.10259