/*--------------------------------*- C++ -*----------------------------------*\
  =========                 |
  \\      /  F ield         | OpenFOAM: The Open Source CFD Toolbox
   \\    /   O peration     | Website:  https://openfoam.org
    \\  /    A nd           | Version:  9
     \\/     M anipulation  |
\*---------------------------------------------------------------------------*/
FoamFile
{
    format      ascii;
    class       volVectorField;
    location    "12";
    object      U;
}
// * * * * * * * * * * * * * * * * * * * * * * * * * * * * * * * * * * * * * //

dimensions      [0 1 -1 0 0 0 0];

internalField   nonuniform List<vector> 
8800
(
(0.979906 -0.0915089 0)
(1.00231 -0.0588305 0)
(0.999552 -0.0321234 0)
(0.999964 -0.016425 0)
(1.00004 -0.00871073 0)
(0.999977 -0.00499334 0)
(0.999954 -0.00294233 0)
(0.999949 -0.00167621 0)
(0.999953 -0.000814249 0)
(1.00005 -0.000145452 0)
(0.999955 0.000543371 0)
(0.999949 0.00128506 0)
(0.999951 0.00230929 0)
(0.99997 0.00390222 0)
(1.00002 0.00660733 0)
(1.00005 0.0119052 0)
(0.999818 0.0230474 0)
(0.999136 0.0432024 0)
(1.00703 0.0790827 0)
(0.774972 0.0478437 0)
(0.359298 -0.0147326 0)
(1.04673 -0.0722693 0)
(1.08857 -0.0659336 0)
(1.04968 -0.0509093 0)
(1.02566 -0.0376777 0)
(1.01257 -0.0256866 0)
(1.00632 -0.0163745 0)
(1.00346 -0.00991917 0)
(1.0021 -0.00540171 0)
(1.00155 -0.00199183 0)
(1.00145 0.000918242 0)
(1.00172 0.00403434 0)
(1.00262 0.00783137 0)
(1.00459 0.01314 0)
(1.00882 0.0209088 0)
(1.01805 0.0316483 0)
(1.03612 0.0445359 0)
(1.06763 0.0578944 0)
(1.09493 0.0702802 0)
(0.846176 0.0554557 0)
(0.218761 -0.00131901 0)
(1.07625 -0.0497821 0)
(1.09934 -0.0478522 0)
(1.06419 -0.0387719 0)
(1.03987 -0.0314015 0)
(1.02405 -0.0244264 0)
(1.01421 -0.0173631 0)
(1.00854 -0.0110255 0)
(1.00557 -0.00567902 0)
(1.00437 -0.000785951 0)
(1.00472 0.00399433 0)
(1.00669 0.00894949 0)
(1.01081 0.0146929 0)
(1.01831 0.021363 0)
(1.03083 0.0283427 0)
(1.05059 0.035296 0)
(1.08001 0.0431168 0)
(1.10619 0.0508027 0)
(0.944973 0.0404981 0)
(0.218468 0.00133088 0)
(0.178572 -0.000587039 0)
(1.02173 -0.0340605 0)
(1.10683 -0.0396367 0)
(1.07837 -0.0343711 0)
(1.05213 -0.0282502 0)
(1.03458 -0.0225904 0)
(1.02269 -0.017333 0)
(1.01493 -0.0119497 0)
(1.01043 -0.00642852 0)
(1.00855 -0.000769233 0)
(1.00906 0.00482433 0)
(1.01211 0.0102608 0)
(1.01803 0.0155844 0)
(1.02767 0.0207064 0)
(1.04208 0.0259723 0)
(1.06339 0.031731 0)
(1.09508 0.0379159 0)
(1.09653 0.0398308 0)
(0.834858 0.0217704 0)
(0.178084 0.000595787 0)
(0.158446 -0.000404891 0)
(0.964414 -0.0231892 0)
(1.10524 -0.0316765 0)
(1.08779 -0.0296831 0)
(1.06072 -0.0258871 0)
(1.04221 -0.0212671 0)
(1.02992 -0.0163229 0)
(1.02146 -0.0113133 0)
(1.01596 -0.00610237 0)
(1.01328 -0.000558317 0)
(1.01406 0.0049487 0)
(1.01799 0.0101772 0)
(1.02478 0.0150444 0)
(1.03486 0.0197914 0)
(1.04985 0.0244525 0)
(1.07231 0.0285331 0)
(1.10181 0.031772 0)
(1.07368 0.030278 0)
(0.753529 0.0127393 0)
(0.157721 0.00041628 0)
(0.146336 -0.000276182 0)
(0.915386 -0.0146187 0)
(1.0988 -0.0234249 0)
(1.09399 -0.0228103 0)
(1.06634 -0.0200343 0)
(1.04735 -0.0171711 0)
(1.03411 -0.0137531 0)
(1.0251 -0.00977392 0)
(1.01946 -0.00532356 0)
(1.01676 -0.000218133 0)
(1.01743 0.00503139 0)
(1.02131 0.0095482 0)
(1.02833 0.0135162 0)
(1.03917 0.0169388 0)
(1.05493 0.0197352 0)
(1.07791 0.0223373 0)
(1.10369 0.0244131 0)
(1.04718 0.0213718 0)
(0.697613 0.00724675 0)
(0.145332 0.000291647 0)
(0.140449 -7.71407e-05 0)
(0.880893 -0.00716087 0)
(1.08877 -0.0145789 0)
(1.09733 -0.0154226 0)
(1.0712 -0.0142176 0)
(1.05218 -0.0125886 0)
(1.03932 -0.0105384 0)
(1.03037 -0.00777666 0)
(1.0245 -0.00422368 0)
(1.0217 0.000218576 0)
(1.02228 0.00480555 0)
(1.02621 0.00854771 0)
(1.03322 0.0113528 0)
(1.04369 0.0133755 0)
(1.05915 0.0148726 0)
(1.08209 0.0159457 0)
(1.10236 0.0163968 0)
(1.02225 0.0123433 0)
(0.665584 0.00317143 0)
(0.139103 9.54352e-05 0)
(0.138705 1.33012e-05 0)
(0.859707 -0.00332556 0)
(1.07737 -0.00940638 0)
(1.09668 -0.0117742 0)
(1.07181 -0.0121433 0)
(1.05344 -0.01149 0)
(1.04095 -0.0099636 0)
(1.03251 -0.00746517 0)
(1.02704 -0.00389645 0)
(1.0244 0.000585185 0)
(1.02477 0.00513356 0)
(1.02826 0.00887769 0)
(1.03469 0.0115105 0)
(1.0447 0.0131585 0)
(1.05962 0.0138587 0)
(1.08186 0.0134211 0)
(1.09755 0.0121979 0)
(1.00186 0.00726724 0)
(0.649358 0.00134188 0)
(0.136946 9.07892e-06 0)
(0.138486 2.69277e-05 0)
(0.845654 -0.00182884 0)
(1.06383 -0.00731751 0)
(1.09234 -0.011607 0)
(1.07167 -0.0128732 0)
(1.05518 -0.0128267 0)
(1.04398 -0.0111445 0)
(1.03636 -0.00823864 0)
(1.03129 -0.00411539 0)
(1.02856 0.000999403 0)
(1.02881 0.00613571 0)
(1.0319 0.0103429 0)
(1.03759 0.013301 0)
(1.0464 0.0149802 0)
(1.05951 0.0151808 0)
(1.07981 0.0144592 0)
(1.0884 0.0112513 0)
(0.983879 0.00518209 0)
(0.640095 0.000784918 0)
(0.13621 -1.44362e-06 0)
(0.138496 1.5291e-05 0)
(0.835488 -0.00107439 0)
(1.04838 -0.0057205 0)
(1.08385 -0.0112902 0)
(1.0702 -0.0141251 0)
(1.05653 -0.0140437 0)
(1.04705 -0.0122437 0)
(1.04036 -0.00882363 0)
(1.03566 -0.00418571 0)
(1.03292 0.00154548 0)
(1.03294 0.00731223 0)
(1.03555 0.0119695 0)
(1.04041 0.0152627 0)
(1.04783 0.0171257 0)
(1.05852 0.0172147 0)
(1.07435 0.0154115 0)
(1.07456 0.0103848 0)
(0.967349 0.00397005 0)
(0.633595 0.000627408 0)
(0.135575 1.59253e-05 0)
(0.138654 1.87397e-05 0)
(0.829092 -0.000339625 0)
(1.03465 -0.00337323 0)
(1.07345 -0.00825082 0)
(1.06712 -0.0114992 0)
(1.05763 -0.0121243 0)
(1.05039 -0.0106088 0)
(1.04457 -0.00749009 0)
(1.04014 -0.00310258 0)
(1.03742 0.00243309 0)
(1.03713 0.00797517 0)
(1.03923 0.0122859 0)
(1.0432 0.0151325 0)
(1.04883 0.0165006 0)
(1.05717 0.0162731 0)
(1.06594 0.013094 0)
(1.05953 0.0078628 0)
(0.95423 0.00268993 0)
(0.629088 0.000467197 0)
(0.134944 1.96043e-05 0)
(0.139086 2.79349e-05 0)
(0.826239 0.000203271 0)
(1.0258 -0.00123124 0)
(1.06518 -0.00424117 0)
(1.06348 -0.00667232 0)
(1.05808 -0.00750212 0)
(1.05291 -0.00670097 0)
(1.04822 -0.00442342 0)
(1.04425 -0.000869586 0)
(1.0416 0.00369806 0)
(1.04088 0.00817678 0)
(1.04227 0.0114048 0)
(1.04505 0.0131075 0)
(1.04897 0.0133536 0)
(1.05359 0.0120921 0)
(1.05781 0.00921844 0)
(1.04772 0.00520002 0)
(0.945564 0.00179419 0)
(0.626059 0.000390369 0)
(0.134375 2.0673e-05 0)
(0.139768 3.38949e-05 0)
(0.825989 0.000575943 0)
(1.02157 0.000234638 0)
(1.06031 -0.0011594 0)
(1.06099 -0.00246307 0)
(1.05796 -0.00296072 0)
(1.05449 -0.00243167 0)
(1.05085 -0.000809099 0)
(1.04739 0.00184326 0)
(1.0447 0.00524109 0)
(1.04347 0.00836964 0)
(1.04402 0.0102456 0)
(1.04551 0.0108828 0)
(1.04771 0.01031 0)
(1.05005 0.00871307 0)
(1.05155 0.00632745 0)
(1.03994 0.00357442 0)
(0.940155 0.0014282 0)
(0.623696 0.000410642 0)
(0.13378 2.52545e-05 0)
(0.140651 4.29966e-05 0)
(0.827137 0.000867933 0)
(1.02046 0.00117008 0)
(1.05833 0.000869569 0)
(1.05995 0.000538582 0)
(1.05815 0.000593525 0)
(1.05573 0.00123166 0)
(1.05285 0.00256812 0)
(1.04975 0.00459736 0)
(1.04689 0.00702672 0)
(1.04507 0.00901217 0)
(1.04463 0.00992004 0)
(1.04506 0.0095658 0)
(1.04591 0.00848943 0)
(1.04681 0.00685375 0)
(1.04695 0.00490703 0)
(1.03484 0.002953 0)
(0.936337 0.00142943 0)
(0.621358 0.000497073 0)
(0.133053 3.33826e-05 0)
(0.141752 5.27184e-05 0)
(0.829437 0.00114209 0)
(1.02118 0.00188261 0)
(1.05833 0.00229848 0)
(1.06023 0.00269285 0)
(1.05896 0.00330425 0)
(1.05703 0.00425611 0)
(1.05451 0.00561861 0)
(1.05151 0.00734594 0)
(1.04834 0.00913298 0)
(1.04583 0.01024 0)
(1.04448 0.0102144 0)
(1.0439 0.00940158 0)
(1.0438 0.00797951 0)
(1.04384 0.00630355 0)
(1.04332 0.00457707 0)
(1.03101 0.00296891 0)
(0.932981 0.00163928 0)
(0.618668 0.000623988 0)
(0.132119 4.37088e-05 0)
(0.143139 6.62435e-05 0)
(0.832683 0.00147381 0)
(1.0232 0.0025949 0)
(1.05968 0.00352943 0)
(1.06159 0.00448243 0)
(1.06045 0.00561213 0)
(1.05864 0.00697937 0)
(1.05615 0.00857543 0)
(1.05296 0.0102686 0)
(1.04927 0.0116958 0)
(1.04592 0.0121742 0)
(1.04366 0.0115222 0)
(1.04226 0.0101815 0)
(1.04144 0.00847687 0)
(1.04092 0.00667197 0)
(1.04002 0.00494056 0)
(1.02753 0.00337114 0)
(0.929448 0.00198939 0)
(0.615387 0.000787348 0)
(0.130925 5.62439e-05 0)
(0.144899 8.48153e-05 0)
(0.836982 0.00189543 0)
(1.0263 0.00341965 0)
(1.06215 0.00480751 0)
(1.06391 0.00624677 0)
(1.06268 0.00788895 0)
(1.06071 0.00975192 0)
(1.05795 0.0117376 0)
(1.0543 0.0135998 0)
(1.04983 0.0148754 0)
(1.0455 0.0148883 0)
(1.0423 0.013694 0)
(1.04012 0.011859 0)
(1.03869 0.00978229 0)
(1.03775 0.00771618 0)
(1.03657 0.00579474 0)
(1.02384 0.0040592 0)
(0.925337 0.00246738 0)
(0.611298 0.000993257 0)
(0.129411 7.1819e-05 0)
(0.147155 0.000110295 0)
(0.842582 0.00244417 0)
(1.0306 0.00443311 0)
(1.06574 0.00627746 0)
(1.06728 0.00820517 0)
(1.06579 0.0104246 0)
(1.06342 0.0128973 0)
(1.06008 0.0154013 0)
(1.05568 0.0175934 0)
(1.05015 0.0188625 0)
(1.04463 0.0184928 0)
(1.04038 0.0167498 0)
(1.0374 0.0143641 0)
(1.03539 0.0118108 0)
(1.03406 0.00935012 0)
(1.03263 0.00708799 0)
(1.01956 0.00502876 0)
(0.920315 0.00309277 0)
(0.606153 0.0012546 0)
(0.127504 9.19915e-05 0)
(0.150078 0.000144186 0)
(0.849875 0.00315658 0)
(1.03634 0.00570791 0)
(1.07067 0.00803134 0)
(1.07189 0.0105209 0)
(1.06999 0.0134979 0)
(1.06699 0.0167701 0)
(1.06278 0.0199183 0)
(1.05726 0.0225459 0)
(1.05033 0.0238943 0)
(1.04333 0.0231517 0)
(1.03786 0.0207923 0)
(1.03399 0.0177442 0)
(1.03134 0.014581 0)
(1.0296 0.0115922 0)
(1.02789 0.00885849 0)
(1.01438 0.00633441 0)
(0.914038 0.00390827 0)
(0.599647 0.00158908 0)
(0.125108 0.000118578 0)
(0.1539 0.00018908 0)
(0.859374 0.00408845 0)
(1.04393 0.00735549 0)
(1.0773 0.0102758 0)
(1.07801 0.0134563 0)
(1.07545 0.0173678 0)
(1.07157 0.0215741 0)
(1.06625 0.0255904 0)
(1.05923 0.0288026 0)
(1.05044 0.0302627 0)
(1.04159 0.029083 0)
(1.03466 0.0259762 0)
(1.02973 0.0221071 0)
(1.02635 0.0181693 0)
(1.02411 0.0145069 0)
(1.02206 0.0111798 0)
(1.00797 0.00806149 0)
(0.906161 0.00497812 0)
(0.591423 0.00201356 0)
(0.122112 0.000151974 0)
(0.15898 0.000254031 0)
(0.871755 0.00537018 0)
(1.05371 0.00961563 0)
(1.08585 0.0133211 0)
(1.08595 0.0174794 0)
(1.08247 0.0225038 0)
(1.07749 0.0278782 0)
(1.07066 0.0329049 0)
(1.06166 0.0367506 0)
(1.0505 0.0382889 0)
(1.03935 0.0365374 0)
(1.03064 0.032493 0)
(1.02444 0.0275947 0)
(1.02017 0.0226728 0)
(1.0173 0.0181533 0)
(1.01481 0.0140963 0)
(1.00002 0.0102675 0)
(0.8964 0.00635742 0)
(0.581174 0.0025366 0)
(0.118396 0.000187857 0)
(0.165845 0.0003578 0)
(0.887937 0.00726686 0)
(1.06622 0.0128195 0)
(1.09679 0.0175102 0)
(1.096 0.0229334 0)
(1.09143 0.0294232 0)
(1.08488 0.0361706 0)
(1.07596 0.0422816 0)
(1.06441 0.0467896 0)
(1.05032 0.0483172 0)
(1.03639 0.0457929 0)
(1.02556 0.0405696 0)
(1.01785 0.0343939 0)
(1.01251 0.0282355 0)
(1.00888 0.0226148 0)
(1.00583 0.0176247 0)
(0.990206 0.0129171 0)
(0.884419 0.00799894 0)
(0.568561 0.00319681 0)
(0.113788 0.000233602 0)
(0.175292 0.000526248 0)
(0.909277 0.0101866 0)
(1.0825 0.0174783 0)
(1.11098 0.023497 0)
(1.10881 0.0306005 0)
(1.1025 0.0388408 0)
(1.09368 0.0471038 0)
(1.08198 0.054404 0)
(1.06721 0.0595048 0)
(1.04957 0.0607876 0)
(1.03239 0.0571952 0)
(1.0191 0.0505118 0)
(1.00961 0.0427938 0)
(1.003 0.0351357 0)
(0.99847 0.0281441 0)
(0.994751 0.0219758 0)
(0.97811 0.0161998 0)
(0.869541 0.0100964 0)
(0.552851 0.00400606 0)
(0.108134 0.000289181 0)
(0.188577 0.000798856 0)
(0.937626 0.0147034 0)
(1.10387 0.0242965 0)
(1.12954 0.0321968 0)
(1.12517 0.0414966 0)
(1.11627 0.051877 0)
(1.10422 0.0618678 0)
(1.08877 0.070263 0)
(1.0699 0.0756256 0)
(1.048 0.0762183 0)
(1.02707 0.0711309 0)
(1.01096 0.0626621 0)
(0.999404 0.0531411 0)
(0.991264 0.0437452 0)
(0.985623 0.0351412 0)
(0.981051 0.0275459 0)
(0.963097 0.0204574 0)
(0.851127 0.0128715 0)
(0.533575 0.005087 0)
(0.10124 0.000351952 0)
(0.20803 0.00129414 0)
(0.976277 0.0220665 0)
(1.13225 0.034807 0)
(1.15378 0.0453319 0)
(1.14588 0.0573932 0)
(1.13307 0.070161 0)
(1.11653 0.081741 0)
(1.09618 0.0907849 0)
(1.07227 0.0958076 0)
(1.04539 0.0950614 0)
(1.02022 0.0879342 0)
(1.00096 0.0773149 0)
(0.987032 0.0657481 0)
(0.97704 0.0544226 0)
(0.969937 0.0440204 0)
(0.964147 0.0347843 0)
(0.944406 0.0261438 0)
(0.828121 0.0166259 0)
(0.509812 0.00656325 0)
(0.0928092 0.000435724 0)
(0.237216 0.00244221 0)
(1.03125 0.0359283 0)
(1.1699 0.0530978 0)
(1.18457 0.0668136 0)
(1.17086 0.0817595 0)
(1.15219 0.0962906 0)
(1.1296 0.108453 0)
(1.10325 0.11703 0)
(1.07357 0.120653 0)
(1.04125 0.117654 0)
(1.01155 0.107854 0)
(0.98891 0.0947406 0)
(0.972358 0.0809637 0)
(0.960198 0.0676272 0)
(0.951224 0.0553596 0)
(0.943652 0.0443821 0)
(0.921356 0.034086 0)
(0.799181 0.0220761 0)
(0.480643 0.00862768 0)
(0.0830494 0.00048527 0)
(0.277972 0.00957025 -1.05447e-20)
(1.10394 0.0642397 -7.76814e-21)
(1.2165 0.0848822 1.98291e-21)
(1.2196 0.102111 0)
(1.19762 0.118274 -1.40169e-35)
(1.1714 0.132568 3.59308e-22)
(1.14175 0.143625 -1.57696e-21)
(1.10876 0.150359 0)
(1.07281 0.151509 5.31211e-35)
(1.03457 0.145542 -3.91255e-21)
(0.999878 0.132745 0)
(0.973346 0.1171 -5.51366e-21)
(0.953591 0.101233 -1.68228e-20)
(0.938586 0.0861313 -8.1291e-21)
(0.926918 0.072426 -2.55364e-21)
(0.916501 0.0602932 -1.54592e-21)
(0.890625 0.0488302 0)
(0.761472 0.0339781 1.11289e-21)
(0.444171 0.0163473 1.31934e-21)
(0.0736432 0.00234677 2.34708e-20)
(0.302952 0.0268158 -2.20505e-20)
(1.16179 0.11106 5.09813e-22)
(1.25847 0.134124 -1.12885e-21)
(1.25155 0.151116 0)
(1.22176 0.165553 1.20475e-21)
(1.18816 0.178016 1.74888e-22)
(1.1515 0.187167 -1.13839e-21)
(1.1118 0.191798 -7.15757e-21)
(1.06928 0.190565 0)
(1.02438 0.181929 1.65666e-20)
(0.983512 0.166637 1.81379e-20)
(0.951757 0.149107 5.7923e-21)
(0.927449 0.131897 2.27662e-20)
(0.908277 0.115803 3.34941e-20)
(0.892608 0.101344 0)
(0.877956 0.0888264 4.98199e-20)
(0.846867 0.0772042 7.3092e-20)
(0.72012 0.0594553 8.16762e-20)
(0.420013 0.0344465 -9.52409e-20)
(0.0707571 0.00611139 -1.73634e-21)
(0.296455 0.0432896 0)
(1.1948 0.170772 -6.80573e-21)
(1.28992 0.196374 0)
(1.27644 0.209959 1.0109e-20)
(1.24038 0.220855 0)
(1.20051 0.229741 3.85143e-21)
(1.15766 0.235556 1.55288e-21)
(1.11188 0.237053 -1.11852e-20)
(1.06337 0.232786 -1.53407e-21)
(1.01244 0.221169 8.05466e-21)
(0.966089 0.203434 4.19955e-20)
(0.929812 0.184401 -2.61042e-22)
(0.901702 0.166546 -1.70451e-20)
(0.879181 0.150515 -3.29705e-20)
(0.860542 0.136657 4.00342e-20)
(0.843431 0.125088 -7.19301e-20)
(0.812707 0.114294 -9.87114e-21)
(0.700531 0.0940148 0)
(0.426019 0.0584681 2.51999e-22)
(0.0788524 0.0113731 0)
(0.285228 0.0573982 -1.74174e-19)
(1.20924 0.233561 7.11497e-20)
(1.30992 0.262843 3.7292e-20)
(1.29263 0.273505 -6.83773e-21)
(1.25228 0.280321 1.0365e-20)
(1.20774 0.285105 -9.97115e-21)
(1.15996 0.287045 2.34459e-21)
(1.10909 0.284831 0)
(1.05543 0.277072 -3.23835e-20)
(0.999307 0.262187 0)
(0.948291 0.241911 -2.13887e-20)
(0.908499 0.221403 -2.9848e-20)
(0.877816 0.203021 -1.90081e-20)
(0.853444 0.187109 -2.44557e-20)
(0.833559 0.173731 0)
(0.815865 0.162905 0)
(0.787448 0.152678 -6.59466e-20)
(0.687012 0.130848 1.31866e-20)
(0.428714 0.083133 -7.70954e-21)
(0.0829781 0.0164623 -9.03838e-21)
(0.274575 0.0699335 1.29259e-19)
(1.21186 0.295564 0)
(1.3203 0.32997 -1.05074e-19)
(1.30103 0.338065 -2.61895e-20)
(1.25776 0.340998 -1.90774e-20)
(1.20988 0.341776 0)
(1.15838 0.339751 -1.12574e-21)
(1.10349 0.333721 1.02816e-20)
(1.04558 0.3223 1.43979e-20)
(0.985159 0.303959 4.01037e-20)
(0.930486 0.280909 0)
(0.888109 0.258717 -6.471e-20)
(0.855747 0.239484 -4.1235e-20)
(0.830323 0.223296 -2.48086e-20)
(0.809844 0.210001 1.62165e-19)
(0.792158 0.199395 1.98732e-20)
(0.766036 0.189105 9.51518e-20)
(0.67356 0.164586 -4.60951e-19)
(0.425398 0.105111 2.74478e-19)
(0.0837347 0.0209185 -3.31979e-19)
(0.265523 0.0811704 1.36837e-19)
(1.2069 0.35486 -2.5144e-20)
(1.32371 0.395886 1.86339e-20)
(1.3034 0.401782 4.99143e-20)
(1.25809 0.401081 2.98795e-20)
(1.20769 0.398146 1.62493e-21)
(1.1533 0.392375 7.21072e-22)
(1.09521 0.382617 8.19248e-21)
(1.03385 0.36752 -3.13372e-20)
(0.969754 0.345611 0)
(0.911924 0.319611 -2.78536e-20)
(0.867481 0.295375 -1.46629e-21)
(0.833953 0.274836 -4.60017e-20)
(0.807997 0.257864 0)
(0.787462 0.2441 -3.52952e-20)
(0.770201 0.233141 -8.57335e-20)
(0.74584 0.222256 2.37224e-19)
(0.658435 0.194532 -2.37131e-19)
(0.417874 0.124187 3.3752e-19)
(0.0826698 0.0247067 -3.51797e-19)
(0.258353 0.0915783 -4.50241e-22)
(1.19757 0.410846 3.0903e-20)
(1.32181 0.459347 8.97233e-20)
(1.30103 0.463589 -3.08638e-20)
(1.25427 0.459624 1.7186e-20)
(1.20201 0.453247 0)
(1.14537 0.444005 6.65862e-21)
(1.08464 0.430745 -6.84489e-21)
(1.02032 0.412128 -1.45074e-20)
(0.953102 0.386647 0)
(0.892669 0.357477 -2.71976e-20)
(0.846614 0.330837 -3.78936e-20)
(0.812284 0.308542 5.01927e-20)
(0.786109 0.290323 -3.20519e-20)
(0.765729 0.275646 -1.55005e-19)
(0.748966 0.26393 9.52056e-20)
(0.725841 0.252027 3.01407e-20)
(0.641542 0.220914 0)
(0.407625 0.140532 -3.26886e-19)
(0.0805138 0.0278315 -1.20109e-20)
(0.252777 0.101469 2.24675e-20)
(1.18576 0.463432 -3.56091e-20)
(1.31608 0.519839 -4.90171e-20)
(1.29517 0.52278 -9.46675e-20)
(1.24737 0.515968 8.43336e-20)
(1.19371 0.506545 -4.32836e-20)
(1.13529 0.494158 -1.40926e-20)
(1.07238 0.477683 -1.00461e-20)
(1.00558 0.455739 1.35668e-20)
(0.935702 0.426771 -9.72431e-20)
(0.872865 0.394265 -3.32284e-20)
(0.825316 0.364907 0)
(0.790297 0.340493 5.48002e-20)
(0.763993 0.320634 6.76284e-20)
(0.743854 0.30469 8.31633e-20)
(0.727597 0.29189 -1.03755e-19)
(0.705385 0.278646 -3.12478e-20)
(0.623356 0.244157 3.71504e-20)
(0.395573 0.154544 0)
(0.0777113 0.0303772 -2.61608e-20)
(0.248471 0.110987 -2.60917e-19)
(1.17271 0.51278 1.63688e-19)
(1.3076 0.577118 5.38637e-20)
(1.28667 0.579047 -7.25441e-20)
(1.23814 0.569755 5.08509e-20)
(1.18344 0.557649 -3.80475e-21)
(1.12365 0.542463 1.35782e-20)
(1.05897 0.523076 -4.09524e-21)
(0.989933 0.498096 -2.5703e-20)
(0.917529 0.465794 1.38516e-22)
(0.852411 0.429882 -9.916e-20)
(0.803418 0.397573 9.60098e-20)
(0.767749 0.370708 -6.13031e-20)
(0.741344 0.348869 7.61264e-20)
(0.721466 0.331351 0)
(0.705696 0.317231 -5.6324e-20)
(0.684203 0.302462 -1.34371e-21)
(0.604079 0.264454 -1.62291e-19)
(0.382037 0.166379 -2.40234e-20)
(0.0742945 0.0322704 0)
(0.245213 0.120208 0)
(1.15922 0.559192 1.76937e-19)
(1.29712 0.631029 1.26121e-19)
(1.27632 0.632215 8.20933e-20)
(1.22727 0.620809 4.86721e-20)
(1.1718 0.606357 0)
(1.11088 0.588689 1.4739e-20)
(1.04467 0.56671 -1.23498e-21)
(0.973639 0.539001 5.42594e-20)
(0.898785 0.503612 -1.19576e-20)
(0.831448 0.464372 -7.25924e-20)
(0.780945 0.428944 4.81476e-20)
(0.744534 0.399348 -1.93696e-21)
(0.717965 0.375195 8.02662e-20)
(0.698327 0.35578 5.23019e-20)
(0.683023 0.340092 -1.22666e-19)
(0.662128 0.323545 1.48569e-19)
(0.583696 0.281839 4.45094e-20)
(0.367046 0.175892 1.84235e-19)
(0.0702849 0.0334936 -4.93139e-19)
(0.242821 0.129259 -6.69011e-20)
(1.14576 0.602787 1.02347e-19)
(1.28529 0.681684 -7.90629e-20)
(1.2647 0.682335 -9.56089e-20)
(1.21526 0.669079 0)
(1.15919 0.652564 3.91492e-20)
(1.09738 0.632716 -4.20314e-20)
(1.0299 0.608487 3.88621e-21)
(0.957081 0.57837 0)
(0.879792 0.54021 -1.83851e-19)
(0.81011 0.497785 1.97588e-19)
(0.75794 0.459185 0)
(0.720565 0.42662 7.25935e-20)
(0.693701 0.399834 -1.97041e-21)
(0.674248 0.378182 -1.65853e-19)
(0.659405 0.360654 6.51905e-20)
(0.639055 0.342119 0)
(0.561933 0.296388 2.41191e-19)
(0.350491 0.183084 0)
(0.0657268 0.0340162 -2.35164e-19)
(0.241088 0.138148 7.45326e-20)
(1.1326 0.643783 1.17153e-19)
(1.27261 0.72917 -8.27047e-20)
(1.25222 0.729451 0)
(1.20253 0.71458 6.77778e-20)
(1.14606 0.696258 0)
(1.08354 0.674511 5.69573e-20)
(1.01498 0.648355 5.14406e-21)
(0.940513 0.616188 6.04873e-21)
(0.860888 0.575566 -9.06926e-20)
(0.788596 0.530201 1.92243e-20)
(0.734461 0.488466 0)
(0.695806 0.452742 -1.54635e-19)
(0.668373 0.423028 2.04717e-21)
(0.64898 0.39879 0)
(0.634698 0.379134 2.42509e-21)
(0.614863 0.358204 2.19024e-19)
(0.538682 0.308103 -2.11681e-19)
(0.332343 0.187823 6.24736e-20)
(0.0605655 0.0338327 0)
(0.239636 0.146747 0)
(1.11979 0.682405 1.30952e-19)
(1.25957 0.773564 9.72346e-20)
(1.23922 0.773655 -2.1284e-21)
(1.18943 0.757337 4.2727e-20)
(1.13268 0.737445 9.27035e-20)
(1.06963 0.714074 -1.81767e-20)
(1.00013 0.686297 6.61281e-22)
(0.924172 0.652449 3.38607e-20)
(0.842245 0.609791 -1.41133e-19)
(0.767106 0.561809 -3.07644e-21)
(0.710586 0.516941 -6.34001e-20)
(0.670323 0.477878 2.53635e-19)
(0.641978 0.444978 -2.46945e-21)
(0.622594 0.417809 -1.31216e-19)
(0.608817 0.395597 -2.39539e-19)
(0.58938 0.371934 0)
(0.513703 0.317031 0)
(0.312438 0.190033 6.89063e-20)
(0.0548537 0.0328161 -4.02431e-20)
(0.238689 0.155137 9.25247e-20)
(1.1075 0.718614 -2.8596e-19)
(1.24627 0.815024 -1.03963e-19)
(1.22597 0.815014 0)
(1.17618 0.79741 -1.45808e-21)
(1.11929 0.77616 1.12085e-19)
(1.05586 0.751429 -6.2525e-20)
(0.985587 0.722326 -2.24002e-20)
(0.908239 0.687153 3.60608e-20)
(0.823999 0.642923 -1.08849e-19)
(0.745854 0.592692 -1.66877e-19)
(0.686503 0.544812 1.69072e-19)
(0.644331 0.502286 0)
(0.614849 0.465895 -5.9193e-20)
(0.595239 0.435542 -1.44276e-19)
(0.581514 0.410272 -1.74016e-19)
(0.562086 0.38337 -2.11514e-19)
(0.486578 0.32304 6.34598e-20)
(0.290532 0.189348 -3.72545e-20)
(0.0485882 0.0309498 4.88864e-22)
(0.237748 0.163192 0)
(1.09603 0.752364 0)
(1.23292 0.85374 2.33673e-21)
(1.2127 0.853625 0)
(1.163 0.8349 -1.60946e-19)
(1.10608 0.812481 -9.94785e-20)
(1.04242 0.786625 0)
(0.971522 0.756483 -6.37577e-21)
(0.892912 0.72031 4.74038e-20)
(0.806416 0.67494 -2.49605e-19)
(0.725074 0.622901 0)
(0.662416 0.572377 -1.08296e-19)
(0.617806 0.526499 -3.03458e-21)
(0.58682 0.486374 -2.51504e-21)
(0.566317 0.452209 1.54454e-19)
(0.552449 0.423519 -3.67951e-22)
(0.532804 0.392623 -4.60681e-19)
(0.457077 0.325912 1.38881e-19)
(0.266413 0.185524 4.12887e-20)
(0.0417416 0.028157 0)
(0.236777 0.170907 -3.39759e-19)
(1.08501 0.784122 -1.75475e-19)
(1.2197 0.88985 -2.60238e-19)
(1.19956 0.88961 3.61063e-19)
(1.15003 0.869891 -3.02062e-19)
(1.09319 0.846484 0)
(1.02943 0.819712 -5.42867e-20)
(0.958069 0.788792 1.17384e-20)
(0.878357 0.751961 3.63901e-21)
(0.789661 0.705895 1.95944e-20)
(0.70494 0.652638 2.08993e-19)
(0.638448 0.599975 -3.7043e-20)
(0.590357 0.550944 -1.56801e-19)
(0.556998 0.506649 -7.05226e-20)
(0.535438 0.46819 8.61515e-20)
(0.52127 0.435236 -3.1692e-22)
(0.501387 0.399844 1.26948e-19)
(0.424765 0.325576 -3.01831e-19)
(0.239443 0.178064 3.60769e-19)
(0.0342976 0.0244766 5.21767e-20)
(0.235655 0.178187 1.24617e-19)
(1.07442 0.813929 -9.57938e-20)
(1.20672 0.923471 5.67634e-21)
(1.18667 0.923108 2.03968e-19)
(1.13737 0.902508 7.06936e-20)
(1.08071 0.878251 1.98982e-19)
(1.01699 0.850738 -2.43191e-20)
(0.945316 0.819255 5.74486e-20)
(0.864665 0.78209 -3.02629e-20)
(0.773834 0.735778 -1.3642e-19)
(0.685582 0.681929 0)
(0.614896 0.627618 -1.6644e-19)
(0.562322 0.575589 2.27619e-19)
(0.525542 0.526989 0)
(0.502446 0.48387 -1.8458e-19)
(0.487629 0.445699 1.14752e-19)
(0.467298 0.404297 -1.37493e-19)
(0.389431 0.321434 -1.6639e-19)
(0.209807 0.16683 -2.9481e-19)
(0.026392 0.019899 -2.30096e-19)
(0.234618 0.185174 -1.3681e-19)
(1.06407 0.841817 1.0243e-19)
(1.19406 0.954726 2.42489e-19)
(1.17411 0.954235 2.80386e-19)
(1.12511 0.932859 -1.47892e-19)
(1.06873 0.90788 1.3756e-19)
(1.00516 0.879767 -7.56176e-20)
(0.933306 0.847921 7.26373e-20)
(0.851875 0.810694 -1.17496e-20)
(0.759093 0.764561 1.30619e-19)
(0.667266 0.71064 4.43473e-19)
(0.592126 0.655358 0)
(0.534609 0.600819 0)
(0.493041 0.548275 -8.15699e-20)
(0.467113 0.499722 0)
(0.450934 0.455281 2.50427e-19)
(0.429844 0.406063 3.01709e-19)
(0.350886 0.312462 0)
(0.178356 0.151541 0)
(0.0185466 0.014753 2.51941e-19)
(0.233334 0.191545 1.50675e-19)
(1.05402 0.867834 1.22691e-19)
(1.18177 0.983772 1.74114e-19)
(1.16193 0.98314 -2.50097e-19)
(1.1133 0.961064 -1.64891e-19)
(1.05728 0.93546 -1.82635e-19)
(0.993969 0.906869 1.12369e-19)
(0.922087 0.874827 5.02111e-22)
(0.840035 0.837777 -4.66153e-21)
(0.745495 0.792226 -6.01955e-21)
(0.650228 0.738838 2.24559e-19)
(0.570367 0.683129 0)
(0.507573 0.627049 2.29305e-19)
(0.460144 0.571303 1.71655e-19)
(0.429292 0.517596 4.39464e-19)
(0.409994 0.464371 1.34935e-19)
(0.387237 0.403333 -1.6785e-19)
(0.309143 0.295967 -9.92781e-20)
(0.148057 0.131407 0)
(0.012391 0.00981343 2.75359e-19)
(0.232248 0.197739 -3.30917e-19)
(1.04425 0.892239 0)
(1.16986 1.01071 1.94251e-19)
(1.15017 1.00993 -2.04705e-19)
(1.10198 0.987231 1.86587e-19)
(1.04637 0.961089 2.66933e-19)
(0.983444 0.93211 -2.61278e-19)
(0.911666 0.900018 2.14166e-21)
(0.829173 0.863357 0)
(0.733063 0.818716 -1.22652e-19)
(0.634545 0.766433 -4.65408e-19)
(0.549921 0.711121 2.26256e-20)
(0.481617 0.654122 3.10611e-19)
(0.427441 0.596433 0)
(0.389079 0.53783 2.95438e-19)
(0.363369 0.475259 0)
(0.335191 0.395759 0)
(0.261868 0.26462 -1.11292e-19)
(0.129007 0.09763 0)
(0.0265569 0.0130157 7.46254e-20)
(0.230851 0.20328 -3.61171e-19)
(1.03472 0.915128 0)
(1.1583 1.03577 3.14392e-19)
(1.13879 1.03484 0)
(1.09109 1.01161 -1.01203e-19)
(1.03596 0.985035 0)
(0.973497 0.955784 -1.96053e-20)
(0.901928 0.923804 -1.2948e-20)
(0.819155 0.887754 3.21214e-22)
(0.721679 0.844368 -1.21022e-19)
(0.620071 0.793761 1.22419e-20)
(0.530787 0.73968 1.86559e-19)
(0.456457 0.682772 3.00218e-19)
(0.394558 0.624309 4.28623e-20)
(0.34615 0.564012 2.29805e-19)
(0.309018 0.491713 0)
(0.263113 0.386769 3.66509e-19)
(0.188953 0.206167 -2.2025e-19)
(0.0744789 0.0851567 2.54864e-19)
(-0.0640539 0.375694 -2.99701e-19)
(0.229454 0.208549 2.94108e-19)
(1.02524 0.936471 4.63789e-19)
(1.14699 1.05927 0)
(1.12766 1.05826 4.40751e-21)
(1.08048 1.03473 2.74788e-19)
(1.02581 1.00791 -5.16623e-19)
(0.963886 0.978602 -1.1553e-19)
(0.89258 0.947035 0)
(0.809617 0.91198 -1.95997e-20)
(0.710881 0.870458 -3.81938e-21)
(0.606162 0.822318 0)
(0.512004 0.770588 0)
(0.431397 0.714667 2.62289e-19)
(0.361096 0.657097 -1.33126e-19)
(0.299815 0.599188 -2.2722e-19)
(0.245162 0.523262 0)
(0.152586 0.386689 1.85147e-19)
(0.0432755 0.464068 -2.21764e-19)
(0.0502169 1.70256 -1.1629e-19)
(0.0887402 2.71743 -1.49199e-19)
(0.22793 0.212919 -2.15091e-19)
(1.0161 0.95645 -5.84286e-19)
(1.13593 1.08119 1.80736e-19)
(1.11679 1.08005 1.73374e-19)
(1.07018 1.05638 0)
(1.01594 1.02945 -3.69813e-19)
(0.954752 1.00028 -1.93825e-19)
(0.883745 0.969312 8.77382e-21)
(0.80075 0.935543 -2.53193e-21)
(0.700965 0.896353 9.3115e-20)
(0.593379 0.85139 2.06921e-19)
(0.494433 0.803163 1.90651e-19)
(0.407549 0.749678 2.55979e-19)
(0.329164 0.692712 -3.01625e-19)
(0.255946 0.644812 -3.33005e-19)
(0.180809 0.574147 0)
(0.0879959 0.81707 0)
(0.145576 2.40485 9.62121e-20)
(0.153156 3.14367 0)
(0.153646 3.36506 2.21539e-19)
(0.228723 0.217309 0)
(1.00763 0.97509 0)
(1.12492 1.10142 0)
(1.10595 1.10003 4.82394e-20)
(1.0599 1.07638 2.45031e-19)
(1.00616 1.04955 -2.82137e-19)
(0.945982 1.02072 -1.38891e-19)
(0.875376 0.990532 1.00323e-20)
(0.792516 0.958305 -5.55311e-20)
(0.691943 0.921886 -1.00113e-20)
(0.581851 0.880859 3.73411e-19)
(0.478491 0.837149 -2.22523e-20)
(0.385338 0.7877 2.86146e-20)
(0.300472 0.729086 4.2656e-20)
(0.223616 0.694527 1.31354e-21)
(0.149085 0.922883 1.64219e-21)
(0.193324 2.51379 -4.59664e-19)
(0.223031 3.25755 -1.74809e-19)
(0.203706 3.42291 8.08546e-20)
(0.18251 3.4522 -8.23279e-20)
(0.144702 0.174333 1.22468e-19)
(0.991805 0.995474 0)
(1.11383 1.12016 -3.54004e-19)
(1.09596 1.1189 -4.49594e-19)
(1.05037 1.09548 5.10017e-19)
(0.9973 1.06882 2.99589e-19)
(0.937488 1.04004 1.62268e-19)
(0.867554 1.01081 -1.73798e-19)
(0.785053 0.980399 6.16424e-20)
(0.684135 0.947081 0)
(0.572162 0.910422 1.60757e-19)
(0.465102 0.871651 -1.41443e-19)
(0.366071 0.829095 0)
(0.275314 0.771117 3.72172e-20)
(0.21441 0.863015 8.82734e-20)
(0.190912 2.1112 -1.09483e-19)
(0.296275 3.28932 1.21423e-19)
(0.274236 3.4463 5.69823e-20)
(0.230215 3.47677 6.52188e-20)
(0.20002 3.49011 7.49955e-20)
(0.268466 0.249881 -2.27194e-19)
(0.972042 0.998006 0)
(1.09303 1.13894 3.60547e-19)
(1.08178 1.14651 4.63076e-19)
(1.03519 1.1229 -5.24282e-19)
(0.982693 1.09677 -3.18323e-19)
(0.923559 1.06947 -2.50803e-19)
(0.854468 1.04183 -1.29105e-20)
(0.772295 1.01453 -9.22002e-20)
(0.670354 0.986708 1.3792e-20)
(0.554859 0.958597 6.31901e-21)
(0.441506 0.929899 1.08363e-19)
(0.331917 0.901154 2.31276e-20)
(0.252705 0.990029 -3.24753e-20)
(0.298031 2.0426 -7.54327e-20)
(0.380743 3.28104 4.74129e-20)
(0.372916 3.48798 -3.7248e-20)
(0.327268 3.51899 -2.04913e-20)
(0.280562 3.55427 1.97134e-20)
(0.213075 3.54517 8.73028e-22)
(0.254101 0.244646 0)
(0.966486 1.01555 9.50734e-20)
(1.08411 1.15824 -7.14794e-20)
(1.07148 1.16551 -5.16355e-20)
(1.02565 1.14195 -3.44263e-19)
(0.973857 1.11598 3.1088e-19)
(0.915245 1.08889 1.68952e-19)
(0.847109 1.06232 -1.3599e-20)
(0.765812 1.03713 1.15534e-19)
(0.664224 1.01323 -1.37864e-20)
(0.547804 0.991237 -2.07831e-19)
(0.432164 0.970274 1.52668e-20)
(0.323555 0.961747 -1.98953e-20)
(0.301921 1.34487 -2.63636e-20)
(0.419051 2.89312 1.91451e-20)
(0.469802 3.46923 4.85079e-22)
(0.416566 3.5645 -7.25567e-20)
(0.372184 3.59384 -7.89059e-20)
(0.306748 3.62526 1.03232e-19)
(0.230581 3.61888 4.62109e-20)
(0.235889 0.240773 2.3349e-19)
(0.958765 1.03539 6.38968e-19)
(1.0743 1.17885 -2.03801e-19)
(1.06064 1.18557 -1.95865e-19)
(1.01558 1.1618 0)
(0.964608 1.13578 4.54734e-19)
(0.906908 1.10896 2.57819e-19)
(0.840097 1.08345 -1.4356e-20)
(0.760113 1.06049 1.19397e-20)
(0.659507 1.04077 5.16459e-20)
(0.542946 1.0253 -6.42333e-20)
(0.426741 1.01295 -1.03784e-19)
(0.331205 1.05218 -1.28892e-19)
(0.387938 1.86881 1.37403e-19)
(0.529211 3.30485 4.96964e-20)
(0.539587 3.55325 0)
(0.472811 3.61716 0)
(0.424609 3.68099 9.71506e-20)
(0.339158 3.7494 0)
(0.24557 3.72088 2.07604e-19)
(0.222816 0.239777 -3.402e-19)
(0.949168 1.05594 -5.31214e-19)
(1.06276 1.20007 0)
(1.0485 1.206 4.81328e-21)
(1.0043 1.18175 -3.34516e-19)
(0.954348 1.15552 6.75162e-19)
(0.897972 1.12897 1.73372e-19)
(0.832816 1.10445 -1.79495e-20)
(0.754518 1.08366 1.31854e-19)
(0.655421 1.06819 -6.44792e-21)
(0.539442 1.05943 0)
(0.42441 1.05682 0)
(0.358973 1.20348 -9.39121e-20)
(0.49913 2.46019 2.61629e-20)
(0.631453 3.47235 -2.49171e-20)
(0.603414 3.60346 0)
(0.553662 3.67768 2.21364e-19)
(0.488024 3.77758 -3.4169e-19)
(0.430557 3.80766 -3.03633e-19)