/*--------------------------------*- C++ -*----------------------------------*\
  =========                 |
  \\      /  F ield         | OpenFOAM: The Open Source CFD Toolbox
   \\    /   O peration     | Website:  https://openfoam.org
    \\  /    A nd           | Version:  9
     \\/     M anipulation  |
\*---------------------------------------------------------------------------*/
FoamFile
{
    format      ascii;
    class       volScalarField;
    location    "58";
    object      p;
}
// * * * * * * * * * * * * * * * * * * * * * * * * * * * * * * * * * * * * * //

dimensions      [0 2 -2 0 0 0 0];

internalField   nonuniform List<scalar> 
8800
(
0.798755
0.750968
0.71228
0.683285
0.662423
0.647595
0.637004
0.62953
0.62472
0.622677
0.623961
0.628164
0.634819
0.644142
0.656926
0.674663
0.699443
0.733385
0.775936
0.834638
0.630004
0.637683
0.645159
0.648468
0.646965
0.641889
0.635406
0.629334
0.624619
0.621788
0.621525
0.624046
0.628546
0.6345
0.641275
0.647559
0.651202
0.650467
0.645049
0.636359
0.608407
0.614566
0.618694
0.621639
0.623689
0.624296
0.623194
0.621096
0.619091
0.618199
0.619179
0.621574
0.624383
0.626571
0.627183
0.625987
0.623648
0.620256
0.615699
0.611938
0.602597
0.605247
0.607999
0.610402
0.612038
0.613202
0.613947
0.614072
0.613788
0.613756
0.614527
0.615712
0.616562
0.616635
0.61603
0.614942
0.613129
0.61056
0.608158
0.606654
0.597216
0.59864
0.600419
0.602451
0.604236
0.60558
0.606573
0.607378
0.608005
0.608588
0.60926
0.609773
0.609884
0.609604
0.608912
0.607667
0.605974
0.604127
0.602821
0.601989
0.59214
0.59306
0.594301
0.595867
0.5975
0.599026
0.600316
0.601391
0.602369
0.603283
0.603996
0.604342
0.604313
0.603882
0.603007
0.601811
0.600486
0.599228
0.598406
0.597855
0.587233
0.587903
0.588864
0.590166
0.591575
0.593034
0.594478
0.595808
0.597022
0.598153
0.599
0.599388
0.599318
0.598818
0.598019
0.597075
0.596066
0.595144
0.59456
0.594154
0.58245
0.582967
0.583749
0.584878
0.586155
0.58753
0.588979
0.59046
0.591903
0.593265
0.5943
0.594794
0.594784
0.594409
0.593813
0.593092
0.592322
0.59164
0.591207
0.590889
0.57772
0.57813
0.578785
0.579789
0.580994
0.582321
0.583769
0.585333
0.586971
0.588596
0.589873
0.590555
0.590735
0.590577
0.590201
0.589689
0.589122
0.588632
0.588309
0.588052
0.572955
0.57329
0.573855
0.57478
0.575935
0.577247
0.57873
0.58039
0.582213
0.584124
0.585715
0.586687
0.58714
0.587231
0.587082
0.586791
0.586416
0.586084
0.585846
0.58563
0.568069
0.568347
0.568851
0.569729
0.570865
0.572201
0.573755
0.575554
0.577602
0.579844
0.581831
0.583178
0.583958
0.584333
0.584432
0.584363
0.584178
0.583986
0.583815
0.583628
0.562974
0.563207
0.563672
0.564534
0.565691
0.567093
0.568762
0.570751
0.573091
0.575742
0.578215
0.580012
0.581175
0.581876
0.582251
0.58241
0.582415
0.582351
0.582236
0.58207
0.557579
0.557777
0.558222
0.559097
0.560317
0.56183
0.563667
0.565915
0.568624
0.571792
0.574854
0.577185
0.578795
0.579867
0.580551
0.580952
0.581165
0.581219
0.58115
0.580998
0.551783
0.551953
0.552396
0.553313
0.554636
0.556311
0.558385
0.56097
0.56415
0.567958
0.571734
0.574702
0.576837
0.578336
0.579371
0.580064
0.580479
0.580648
0.58062
0.580476
0.545472
0.545617
0.546072
0.547062
0.548535
0.55043
0.552817
0.555835
0.559608
0.564203
0.568844
0.572574
0.575332
0.577331
0.578765
0.579773
0.580421
0.58071
0.580719
0.58058
0.538507
0.538627
0.53911
0.540203
0.541878
0.544064
0.546852
0.550418
0.55493
0.560487
0.566174
0.570817
0.574313
0.576903
0.578807
0.580177
0.581083
0.581495
0.581538
0.5814
0.530711
0.530809
0.531335
0.532567
0.534501
0.537058
0.540358
0.544616
0.550045
0.55678
0.563729
0.56946
0.573826
0.577111
0.579578
0.581372
0.582565
0.583107
0.583181
0.58304
0.521858
0.521959
0.522538
0.523927
0.526193
0.529231
0.533183
0.53831
0.544876
0.553052
0.561517
0.56854
0.573935
0.578035
0.581169
0.583457
0.584974
0.585654
0.585758
0.58561
0.511642
0.511724
0.512394
0.514008
0.516706
0.520362
0.525139
0.531362
0.539343
0.54928
0.559562
0.568108
0.574709
0.57977
0.583667
0.586538
0.588424
0.589249
0.58938
0.589223
0.499695
0.499761
0.50053
0.502457
0.505712
0.51016
0.515995
0.523604
0.533349
0.545431
0.557881
0.568215
0.576222
0.582405
0.587188
0.590738
0.593026
0.594
0.594152
0.593981
0.48547
0.485525
0.486436
0.488777
0.492768
0.498262
0.505475
0.514865
0.526817
0.541507
0.556523
0.568937
0.578554
0.586023
0.591837
0.596149
0.598869
0.599987
0.600154
0.599965
0.468207
0.468251
0.469375
0.472299
0.477297
0.484204
0.493255
0.504965
0.519703
0.537561
0.555574
0.570358
0.581797
0.590719
0.597679
0.602842
0.606006
0.607252
0.607421
0.607212
0.446757
0.446799
0.448269
0.452072
0.458524
0.467422
0.478993
0.493766
0.512013
0.533671
0.555139
0.572575
0.586038
0.596567
0.604761
0.610844
0.614432
0.615771
0.615925
0.615694
0.419402
0.419463
0.421518
0.426734
0.435434
0.447256
0.462376
0.481218
0.503851
0.530007
0.55537
0.575704
0.591338
0.603588
0.613122
0.620112
0.624051
0.625421
0.625539
0.625287
0.383112
0.383272
0.386528
0.394356
0.406852
0.423135
0.443314
0.467499
0.495501
0.526841
0.556484
0.579879
0.597775
0.611804
0.622714
0.63051
0.634657
0.635968
0.636026
0.635755
0.332116
0.333086
0.339557
0.352741
0.371835
0.395015
0.422169
0.453111
0.487452
0.524558
0.558714
0.585234
0.605393
0.62117
0.633379
0.641785
0.645925
0.647073
0.647056
0.646772
0.25753
0.264752
0.279722
0.302928
0.331868
0.364289
0.399969
0.438688
0.480057
0.523426
0.562451
0.592355
0.614985
0.632675
0.646206
0.655077
0.659096
0.660066
0.660003
0.659756
0.177317
0.194425
0.218689
0.252577
0.291735
0.333533
0.377819
0.42453
0.47336
0.523719
0.568547
0.602695
0.628418
0.648462
0.663605
0.672795
0.676402
0.677106
0.677063
0.676911
0.110471
0.13063
0.162584
0.205541
0.253734
0.304371
0.357005
0.411555
0.467692
0.524834
0.575217
0.613346
0.641958
0.664053
0.680229
0.689349
0.69265
0.693274
0.693277
0.693173
0.0557207
0.0775314
0.114985
0.164359
0.219692
0.27778
0.337802
0.399551
0.462572
0.526196
0.581865
0.623731
0.65497
0.678826
0.696012
0.705312
0.70864
0.709293
0.709343
0.70927
0.0101236
0.0331156
0.0743516
0.128824
0.1899
0.254146
0.320521
0.38868
0.458006
0.527689
0.588362
0.63377
0.667497
0.693101
0.711289
0.721225
0.724799
0.725396
0.725455
0.725414
-0.0285798
-0.00491694
0.0391795
0.0976976
0.163604
0.233091
0.304984
0.378837
0.453907
0.529234
0.594641
0.643435
0.679572
0.706905
0.726208
0.736801
0.74063
0.741285
0.741366
0.741352
-0.0624061
-0.0383002
0.00806447
0.0699117
0.139898
0.213941
0.290728
0.369725
0.450083
0.530694
0.60059
0.652612
0.691051
0.720044
0.74037
0.751613
0.75579
0.756568
0.756685
0.756691
-0.0928446
-0.0683473
-0.0201349
0.0445597
0.118064
0.196103
0.27728
0.360969
0.446231
0.53183
0.606004
0.66111
0.701719
0.732216
0.753548
0.765366
0.769874
0.770836
0.770952
0.77096
-0.120855
-0.0960021
-0.046209
0.0209373
0.0975395
0.179118
0.264241
0.352229
0.442081
0.53243
0.610733
0.668794
0.711444
0.743305
0.765512
0.777843
0.782634
0.783735
0.783848
0.783845
-0.147234
-0.121979
-0.0707077
-0.00146964
0.0778966
0.16263
0.251322
0.343268
0.437429
0.532335
0.614675
0.675627
0.720229
0.753376
0.776269
0.78898
0.793958
0.795149
0.795258
0.795237
-0.172355
-0.146684
-0.0941994
-0.0229839
0.058831
0.146396
0.238323
0.333915
0.432126
0.531436
0.617772
0.681618
0.728127
0.762459
0.785936
0.798882
0.803939
0.805169
0.805253
0.805213
-0.196633
-0.17042
-0.116906
-0.043852
0.0401386
0.130244
0.225107
0.324053
0.426069
0.529644
0.619988
0.686789
0.73524
0.770693
0.794646
0.807666
0.81275
0.813974
0.814039
0.813977
-0.220198
-0.193577
-0.13891
-0.0642491
0.0216926
0.114076
0.211593
0.31362
0.419198
0.526901
0.621289
0.691177
0.741674
0.778255
0.802584
0.815587
0.820595
0.82177
0.821821
0.821742
-0.243182
-0.216047
-0.160357
-0.0842537
0.00343461
0.0978527
0.197753
0.302584
0.411478
0.523154
0.621629
0.694809
0.74754
0.785318
0.809955
0.822808
0.827645
0.828729
0.828727
0.828636
-0.265714
-0.23801
-0.181325
-0.103901
-0.0146638
0.0815675
0.183599
0.290959
0.402905
0.518366
0.620962
0.697682
0.752935
0.792039
0.816903
0.829448
0.833968
0.834889
0.834823
0.834684
-0.287815
-0.259456
-0.201845
-0.123194
-0.0325761
0.0652459
0.169168
0.278783
0.393501
0.512514
0.61923
0.699757
0.757912
0.798595
0.823629
0.835621
0.839635
0.840325
0.840204
0.840053
-0.30933
-0.280351
-0.221855
-0.14211
-0.0502734
0.0489496
0.154518
0.266125
0.38332
0.505614
0.616364
0.70096
0.762467
0.805153
0.83043
0.841594
0.84478
0.845102
0.844917
0.844769
-0.33024
-0.300671
-0.241342
-0.160609
-0.0677012
0.0327338
0.139734
0.25306
0.372436
0.497692
0.612315
0.701168
0.766524
0.811814
0.837705
0.847883
0.849724
0.849317
0.849017
0.848923
-0.350614
-0.320382
-0.260283
-0.178657
-0.0848
0.0166788
0.124902
0.239688
0.360937
0.488809
0.607035
0.700232
0.769904
0.818496
0.845815
0.855368
0.855372
0.853376
0.852653
0.852856
-0.37028
-0.339463
-0.278623
-0.196198
-0.101513
0.000865515
0.110113
0.226117
0.348936
0.479055
0.600506
0.697976
0.772329
0.824845
0.854738
0.865043
0.863678
0.85925
0.856606
0.856174
-0.389336
-0.357904
-0.296381
-0.213261
-0.117872
-0.0147485
0.0953138
0.212292
0.336368
0.46836
0.592595
0.694127
0.77349
0.830334
0.863831
0.877175
0.877063
0.87065
0.862451
0.848425
-0.407705
-0.375692
-0.313673
-0.230045
-0.134161
-0.0304902
0.0800949
0.19774
0.322708
0.456099
0.582669
0.687922
0.772832
0.834244
0.871388
0.889585
0.891397
0.878852
0.859053
0.847424
-0.425215
-0.392962
-0.330307
-0.24635
-0.15003
-0.0460194
0.0646799
0.18278
0.308256
0.442525
0.570781
0.678871
0.769505
0.835407
0.873203
0.891224
0.895729
0.872401
0.80474
0.774388
-0.441199
-0.41096
-0.345953
-0.26168
-0.164696
-0.0608364
0.0493826
0.16764
0.293225
0.427756
0.556855
0.666648
0.762062
0.833144
0.864271
0.876887
0.865948
0.811641
0.742561
0.700068
-0.496753
-0.426841
-0.360155
-0.277157
-0.179775
-0.0764012
0.034135
0.152036
0.277243
0.411322
0.540274
0.650586
0.746604
0.824196
0.828685
0.831055
0.781036
0.710455
0.633711
0.591001
-0.458199
-0.44216
-0.381374
-0.297429
-0.202063
-0.0987525
0.0107564
0.127995
0.252192
0.384827
0.511827
0.620439
0.70854
0.790888
0.777259
0.663367
0.557752
0.48426
0.410691
0.441042
-0.489133
-0.459781
-0.398068
-0.314938
-0.219581
-0.116408
-0.00663991
0.109952
0.233068
0.363887
0.488062
0.592459
0.671091
0.715078
0.666254
0.516782
0.388537
0.296854
0.197957
0.24785
-0.51297
-0.48068
-0.417729
-0.334436
-0.23897
-0.135901
-0.0262212
0.089528
0.211231
0.339633
0.460061
0.558268
0.628111
0.637605
0.530702
0.357483
0.204489
0.0854275
-0.0458381
-0.0131457
-0.536306
-0.502475
-0.438331
-0.354113
-0.258554
-0.155633
-0.0464797
0.0682981
0.188394
0.314001
0.429751
0.520117
0.574728
0.552821
0.394077
0.197618
0.00721157
-0.160767
-0.349361
-0.367936
-0.559056
-0.524764
-0.459719
-0.374717
-0.279002
-0.176298
-0.0677946
0.0458883
0.164121
0.286534
0.396908
0.479405
0.514606
0.456616
0.264139
0.0536632
-0.163519
-0.352696
-0.594576
-0.89257
-0.582106
-0.547802
-0.482203
-0.396701
-0.300789
-0.198247
-0.0903216
0.0222326
0.138493
0.257451
0.36214
0.436382
0.450565
0.341555
0.151143
-0.0586189
-0.262754
-0.434902
-0.504043
-0.583094
-0.606419
-0.572041
-0.506131
-0.420385
-0.324411
-0.222122
-0.114867
-0.00361451
0.110354
0.225331
0.323973
0.387236
0.376601
0.233986
0.050796
-0.139932
-0.302563
-0.395308
-0.419341
-0.435254
-0.6323
-0.597786
-0.531674
-0.445849
-0.349997
-0.248133
-0.141787
-0.0321399
0.0791187
0.189473
0.281606
0.330823
0.302685
0.134187
-0.0400989
-0.205761
-0.33207
-0.371004
-0.383882
-0.385213
-0.659952
-0.625217
-0.558899
-0.473087
-0.377497
-0.276284
-0.171101
-0.0633914
0.0447192
0.149876
0.234571
0.269807
0.222092
0.0420742
-0.123164
-0.271531
-0.347455
-0.364495
-0.36581
-0.365619
-0.689439
-0.654397
-0.587827
-0.502097
-0.406926
-0.306561
-0.202809
-0.0973822
0.0071641
0.106605
0.182939
0.206511
0.123132
-0.0420009
-0.199004
-0.321298
-0.357843
-0.356066
-0.355058
-0.354426
-0.720475
-0.685142
-0.618356
-0.532791
-0.438194
-0.338907
-0.236877
-0.134083
-0.0335093
0.0597589
0.127581
0.134517
0.0328902
-0.120266
-0.259001
-0.334371
-0.344788
-0.347504
-0.348218
-0.347914
-0.75251
-0.717017
-0.650228
-0.564936
-0.471113
-0.373162
-0.273148
-0.173359
-0.0771176
0.00966643
0.0688253
0.060852
-0.0481476
-0.186452
-0.302181
-0.333631
-0.342085
-0.343643
-0.343513
-0.343261
-0.785073
-0.74946
-0.683001
-0.598134
-0.505335
-0.408999
-0.311335
-0.214915
-0.123373
-0.0430028
0.00570228
-0.00952787
-0.122975
-0.239774
-0.332309
-0.347908
-0.34056
-0.339888
-0.339937
-0.339771
-0.817268
-0.781738
-0.715776
-0.6318
-0.540312
-0.44594
-0.35098
-0.258263
-0.171794
-0.0976598
-0.0589906
-0.0754392
-0.189168
-0.280252
-0.333486
-0.344352
-0.340898
-0.339246
-0.33857
-0.338315
-0.847515
-0.812674
-0.747587
-0.664998
-0.575271
-0.483278
-0.391418
-0.302694
-0.221566
-0.153731
-0.118612
-0.149948
-0.245595
-0.314346
-0.320115
-0.337329
-0.341614
-0.339909
-0.339265
-0.33884
-0.874207
-0.840462
-0.777298
-0.696531
-0.609168
-0.520072
-0.431771
-0.34732
-0.271523
-0.21025
-0.175776
-0.2239
-0.302718
-0.333432
-0.348818
-0.349747
-0.349571
-0.349147
-0.349126
-0.348708
-0.89522
-0.863189
-0.802903
-0.724976
-0.64072
-0.555157
-0.470929
-0.391076
-0.320427
-0.265746
-0.235149
-0.287134
-0.365651
-0.405415
-0.403354
-0.396846
-0.386297
-0.382848
-0.380517
-0.37884
-0.908296
-0.87897
-0.822401
-0.748486
-0.668423
-0.587208
-0.507646
-0.432698
-0.367039
-0.318213
-0.292409
-0.340084
-0.434189
-0.536997
-0.494358
-0.453984
-0.436235
-0.426228
-0.419397
-0.417689
-0.910803
-0.88554
-0.833888
-0.765225
-0.690582
-0.614831
-0.540582
-0.470835
-0.410041
-0.365387
-0.337415
-0.37024
-0.449898
-0.637865
-0.549425
-0.461076
-0.419983
-0.403507
-0.397848
-0.396312
-0.900586
-0.880222
-0.835201
-0.773593
-0.705734
-0.636546
-0.568429
-0.504188
-0.447912
-0.405363
-0.367071
-0.338758
-0.296289
-0.374791
-0.352274
-0.319549
-0.315097
-0.319129
-0.322541
-0.322338
-0.875558
-0.860196
-0.824518
-0.772391
-0.712925
-0.651382
-0.590051
-0.531563
-0.479542
-0.439238
-0.389046
-0.263596
0.00143408
0.33827
0.174104
-0.110266
-0.238068
-0.283982
-0.301859
-0.305706
-0.838245
-0.828312
-0.802602
-0.761782
-0.712167
-0.659131
-0.604967
-0.552051
-0.504566
-0.466661
-0.416186
-0.318584
-0.129671
0.0264304
-0.150274
-0.326712
-0.425642
-0.470109
-0.488508
-0.495886
-0.795354
-0.789716
-0.77435
-0.744575
-0.705386
-0.660569
-0.613347
-0.565859
-0.522051
-0.489638
-0.469001
-0.585461
-0.959362
-1.40342
-1.46099
-1.22883
-1.02933
-0.915691
-0.877249
-0.874008
-0.756781
-0.753393
-0.746044
-0.726269
-0.695484
-0.657705
-0.616012
-0.572361
-0.53014
-0.498544
-0.488381
-0.693565
-1.06545
-1.46798
-1.58488
-1.47037
-1.36154
-1.20244
-1.07721
-1.05075
-0.729506
-0.727406
-0.723786
-0.71145
-0.686838
-0.653368
-0.61472
-0.571523
-0.526905
-0.482051
-0.463719
-0.461973
-0.561652
-0.686622
-0.78695
-0.803227
-0.801613
-0.719695
-0.613553
-0.570116
-0.709315
-0.708548
-0.707438
-0.701297
-0.682064
-0.650847
-0.611555
-0.566509
-0.514958
-0.460708
-0.419719
-0.391649
-0.294715
-0.0659813
0.178852
0.370265
0.457893
0.506547
0.53918
0.557455
-0.698041
-0.697666
-0.697045
-0.694375
-0.680547
-0.650392
-0.608704
-0.55895
-0.502064
-0.437891
-0.368822
-0.301006
-0.0805154
0.301715
0.679116
1.00735
1.17591
1.24604
1.26424
1.26401
-0.691565
-0.691219
-0.690417
-0.689792
-0.681749
-0.652615
-0.60707
-0.551522
-0.487121
-0.40749
-0.31898
-0.222748
0.0278021
0.410099
0.790533
1.10981
1.2912
1.37026
1.39401
1.39922
-0.689405
-0.689441
-0.689594
-0.690741
-0.686129
-0.657617
-0.607448
-0.546527
-0.472763
-0.387018
-0.288833
-0.189843
0.0464548
0.377265
0.681402
0.935156
1.09448
1.18554
1.23548
1.25411
-0.68603
-0.687057
-0.689615
-0.693236
-0.689999
-0.661246
-0.60998
-0.54473
-0.464694
-0.370648
-0.268973
-0.180508
0.0126756
0.315479
0.592523
0.822923
0.984108
1.08533
1.14397
1.16502
-0.680555
-0.680556
-0.677951
-0.672826
-0.669198
-0.654374
-0.615339
-0.548642
-0.46265
-0.363031
-0.264686
-0.175853
-0.010877
0.250888
0.511077
0.728726
0.902411
1.00943
1.0609
1.07595
-0.702236
-0.698313
-0.679705
-0.6514
-0.642424
-0.656758
-0.633337
-0.560781
-0.465407
-0.35988
-0.262936
-0.177304
-0.0596452
0.182392
0.403408
0.59249
0.742438
0.833296
0.874185
0.884714
-0.776751
-0.773793
-0.77179
-0.774948
-0.771045
-0.762232
-0.687963
-0.582234
-0.468183
-0.356889
-0.260593
-0.175333
-0.0798267
0.0951197
0.28084
0.432413
0.550463
0.620233
0.650805
0.65776
-0.9009
-0.916876
-0.955434
-0.985367
-0.974483
-0.911103
-0.759961
-0.602757
-0.467418
-0.350643
-0.255546
-0.176111
-0.0987155
0.027326
0.170664
0.286474
0.377393
0.429278
0.450761
0.453901
-0.954524
-0.977794
-1.01438
-1.03916
-1.02625
-0.9431
-0.76311
-0.589244
-0.449325
-0.33636
-0.248923
-0.181612
-0.121357
-0.0338282
0.0747778
0.1641
0.233573
0.271182
0.286706
0.286526
-0.809726
-0.831677
-0.866984
-0.895579
-0.885995
-0.797709
-0.651478
-0.514859
-0.400924
-0.307559
-0.235372
-0.182362
-0.143872
-0.0845578
-0.00543204
0.0617038
0.114207
0.13994
0.148317
0.148426
-0.493539
-0.508156
-0.534058
-0.559943
-0.564962
-0.52892
-0.463178
-0.392447
-0.327235
-0.266202
-0.214942
-0.176753
-0.151289
-0.114526
-0.0649717
-0.0209916
0.011194
0.0269056
0.0320286
0.0305231
-0.178801
-0.185575
-0.201674
-0.227357
-0.255348
-0.271349
-0.275683
-0.266826
-0.24754
-0.219731
-0.190507
-0.166012
-0.149015
-0.128933
-0.102937
-0.0827454
-0.0705843
-0.0676409
-0.0671427
-0.0682035
0.0129501
0.009502
-0.00179513
-0.0264568
-0.0648124
-0.108417
-0.144624
-0.169082
-0.179714
-0.1776
-0.166733
-0.152527
-0.139336
-0.134132
-0.130723
-0.128793
-0.131001
-0.134781
-0.136571
-0.137098
0.0840587
0.0821508
0.0736253
0.0525534
0.01683
-0.027201
-0.0701303
-0.105871
-0.131137
-0.145156
-0.148278
-0.142665
-0.133564
-0.137862
-0.146566
-0.155666
-0.165225
-0.171645
-0.173657
-0.173956
0.092842
0.0913513
0.0850014
0.069236
0.0419777
0.00662324
-0.031768
-0.0680786
-0.0991104
-0.123616
-0.140556
-0.14887
-0.149792
-0.157896
-0.165567
-0.172436
-0.179718
-0.183958
-0.185128
-0.185574
0.0781791
0.0770985
0.0726716
0.0616896
0.0423383
0.0159884
-0.0149977
-0.0471502
-0.0787997
-0.110131
-0.142222
-0.175432
-0.198877
-0.19343
-0.186735
-0.185838
-0.185068
-0.185494
-0.185693
-0.186127
0.0588177
0.0580857
0.0551213
0.047727
0.0343812
0.0153984
-0.00838703
-0.0351723
-0.0643894
-0.0984523
-0.141574
-0.195354
-0.235908
-0.216415
-0.19574
-0.184404
-0.181381
-0.18118
-0.181157
-0.18137
0.0415982
0.0411315
0.0392237
0.0343822
0.0253857
0.0120644
-0.00546735
-0.0264949
-0.0510509
-0.0824477
-0.125814
-0.183352
-0.211417
-0.189765
-0.171307
-0.16518
-0.165127
-0.166292
-0.166493
-0.166363
0.0283518
0.0280613
0.0268968
0.0238373
0.0179636
0.00892157
-0.00339906
-0.0187137
-0.0371069
-0.0602854
-0.0910579
-0.128452
-0.139867
-0.12589
-0.119908
-0.123318
-0.129312
-0.132756
-0.133322
-0.133084
0.0189724
0.0188099
0.018144
0.0163267
0.0126897
0.00691283
-0.00111828
-0.0110942
-0.0224837
-0.0347595
-0.0460758
-0.0550665
-0.0500611
-0.0465889
-0.0563945
-0.0687021
-0.0780054
-0.0821506
-0.083011
-0.0829675
0.0124707
0.0124181
0.0120888
0.0111374
0.00913044
0.00577999
0.00111899
-0.00432749
-0.00926868
-0.01083
-0.00317174
0.0149585
0.0393571
0.0257819
0.00430555
-0.0138147
-0.0236745
-0.0265958
-0.0281505
-0.0285834
0.00796221
0.00796625
0.00785758
0.00748961
0.00656118
0.00492961
0.00269544
0.000577299
0.000367269
0.00649204
0.0266321
0.0599392
0.0903028
0.072624
0.0474419
0.0287673
0.0197988
0.0166606
0.0154696
0.0148691
0.00470076
0.00473789
0.00475105
0.00470989
0.00443688
0.00385774
0.00310005
0.0029043
0.00499817
0.0140595
0.0377468
0.0734203
0.100264
0.0854136
0.0619879
0.0490811
0.0450853
0.0442619
0.0424373
0.0412235
0.00217077
0.00219936
0.00224994
0.00238041
0.00244792
0.00239412
0.00231247
0.00270753
0.00479331
0.0119114
0.0299844
0.0556675
0.0762997
0.0635067
0.0485849
0.042671
0.0425141
0.0431862
0.0417085
0.040471
0.000241925
0.000267622
0.000261933
0.000336304
0.000438149
0.000492083
0.000479876
0.00054589
0.000841806
0.00188647
0.00480615
0.0108727
0.0173742
0.0168867
0.0133071
0.0148114
0.0147842
0.0127835
0.00990686
0.0094729
-0.121286
0.0453343
0.239839
0.409599
0.54518
0.651876
0.740065
0.815156
0.849391
0.826122
0.180732
0.301225
0.430855
0.542856
0.637216
0.715263
0.778454
0.82333
0.845793
0.857911
0.39912
0.481772
0.570378
0.648608
0.71587
0.772144
0.81691
0.849631
0.873306
0.891317
0.559626
0.618797
0.68029
0.737271
0.786836
0.828932
0.863522
0.891131
0.913895
0.932213
0.684864
0.727901
0.773796
0.817527
0.856171
0.889936
0.918847
0.942921
0.96329
0.981136
0.789061
0.821894
0.859963
0.895465
0.928062
0.957289
0.982837
1.00432
1.02216
1.03951
0.881534
0.910204
0.944148
0.976261
1.00619
1.03335
1.05709
1.07681
1.09231
1.10939
0.97008
0.99927
1.03326
1.06529
1.09489
1.12147
1.14433
1.16281
1.17618
1.19322
1.06537
1.09857
1.1352
1.16878
1.19882
1.225
1.24695
1.26423
1.27609
1.29349
1.18035
1.21817
1.25681
1.29105
1.3204
1.34514
1.36551
1.3814
1.39287
1.41094
1.32528
1.36382
1.39996
1.43065
1.45632
1.47842
1.49747
1.513
1.52543
1.54342
1.50036
1.53198
1.55815
1.5806
1.60058
1.6193
1.63701
1.65349
1.66884
1.68691
1.68897
1.70617
1.7212
1.73743
1.75334
1.76787
1.78107
1.795
1.81254
1.8327
1.87068
1.88022
1.89176
1.90257
1.91186
1.92144
1.93222
1.94359
1.95495
1.9703
2.07792
2.08158
2.06664
2.05183
2.04555
2.05122
2.0697
2.10001
2.13219
2.15885
2.38424
2.24938
2.17274
2.13035
2.11293
2.1169
2.14429
2.20071
2.30333
2.52769
0.689354
0.687226
0.682742
0.674118
0.661894
0.649766
0.639539
0.631646
0.626033
0.622785
0.622438
0.625183
0.630292
0.637518
0.646908
0.658448
0.6711
0.682135
0.688247
0.691301
0.613805
0.619652
0.625986
0.630478
0.632949
0.632625
0.629889
0.626082
0.622577
0.620323
0.620184
0.622388
0.626056
0.630348
0.634157
0.636041
0.635105
0.631623
0.62646
0.61984
0.605377
0.607673
0.611077
0.614073
0.616149
0.617646
0.618403
0.618089
0.617068
0.616192
0.616375
0.617809
0.619628
0.620937
0.621118
0.620229
0.61868
0.616344
0.613081
0.61016
0.599862
0.600948
0.602781
0.605159
0.607183
0.608611
0.609633
0.610388
0.610794
0.611024
0.611524
0.612337
0.612939
0.613008
0.612597
0.611749
0.61028
0.608196
0.606109
0.604727
0.594653
0.595316
0.596424
0.598128
0.59991
0.601542
0.602839
0.603857
0.604745
0.605544
0.606282
0.606841
0.607038
0.606873
0.606307
0.605252
0.603824
0.602281
0.600963
0.600183
0.58967
0.59013
0.590916
0.592214
0.5937
0.595217
0.596683
0.597983
0.599125
0.600189
0.601114
0.601689
0.601838
0.601566
0.600869
0.599879
0.598753
0.597621
0.596706
0.596188
0.584832
0.585177
0.585787
0.586855
0.588148
0.589521
0.59096
0.592408
0.593786
0.595075
0.596196
0.596894
0.597075
0.596801
0.596202
0.595425
0.594574
0.593707
0.593034
0.592656
0.580086
0.580354
0.580847
0.581754
0.582922
0.584217
0.585612
0.587102
0.588647
0.590175
0.591534
0.59241
0.592715
0.592596
0.592203
0.591642
0.590993
0.590354
0.589862
0.589573
0.57535
0.575563
0.575972
0.576769
0.577856
0.579103
0.580487
0.582023
0.583698
0.585462
0.587105
0.58824
0.588781
0.5889
0.588734
0.588392
0.587948
0.587499
0.587147
0.586921
0.570536
0.570707
0.571058
0.571781
0.572822
0.574046
0.575457
0.577075
0.578905
0.580921
0.582903
0.584391
0.58525
0.585652
0.585735
0.58562
0.585387
0.585109
0.584872
0.584692
0.565557
0.565695
0.566004
0.566683
0.567706
0.568953
0.570429
0.572172
0.574211
0.576533
0.57893
0.580856
0.582098
0.582828
0.583194
0.583318
0.583293
0.58318
0.583041
0.582897
0.560323
0.560435
0.560716
0.561375
0.562416
0.563732
0.565318
0.567238
0.56955
0.572263
0.575171
0.577625
0.579318
0.580427
0.581112
0.581499
0.581683
0.581739
0.581686
0.581569
0.554741
0.55483
0.555095
0.555759
0.556853
0.558279
0.560028
0.562195
0.564859
0.568066
0.571604
0.574691
0.576917
0.578465
0.579507
0.5802
0.580624
0.580834
0.580856
0.580759
0.548703
0.548771
0.549029
0.54972
0.550906
0.55249
0.554467
0.556958
0.560074
0.563898
0.568204
0.572052
0.574911
0.576974
0.578428
0.579461
0.580146
0.580525
0.580618
0.580539
0.542082
0.54213
0.54239
0.543131
0.544448
0.546245
0.548524
0.551432
0.555117
0.559705
0.564946
0.569711
0.573324
0.575996
0.577931
0.579343
0.580331
0.580891
0.581055
0.58099
0.534724
0.534754
0.535019
0.535833
0.537327
0.539403
0.542066
0.545504
0.549905
0.555434
0.561812
0.567678
0.572186
0.575574
0.578081
0.579944
0.581275
0.582031
0.582264
0.58221
0.526439
0.526456
0.526722
0.527635
0.52936
0.531781
0.534941
0.539051
0.544345
0.551031
0.55879
0.565974
0.571543
0.575773
0.578954
0.581362
0.583082
0.584048
0.584353
0.584307
0.516917
0.516904
0.517232
0.518283
0.520295
0.523169
0.526964
0.531921
0.538332
0.54645
0.55588
0.564631
0.571452
0.576674
0.580646
0.583687
0.585853
0.587057
0.587434
0.587392
0.505876
0.505837
0.50621
0.507456
0.509838
0.5133
0.517901
0.523933
0.531745
0.541625
0.553073
0.563684
0.571971
0.578358
0.583257
0.587027
0.589711
0.591168
0.591615
0.591575
0.492836
0.492771
0.493221
0.494719
0.497587
0.501815
0.507462
0.514875
0.524457
0.536512
0.550386
0.563184
0.573174
0.580903
0.586887
0.591496
0.594758
0.596481
0.596993
0.596949
0.477155
0.47706
0.477635
0.479484
0.483001
0.488253
0.495288
0.504505
0.516343
0.531086
0.54786
0.563204
0.575143
0.584396
0.59162
0.597178
0.601073
0.603065
0.60363
0.603576
0.457896
0.457774
0.45855
0.460913
0.465347
0.472022
0.480954
0.492578
0.507326
0.525391
0.545593
0.563845
0.577974
0.588936
0.597517
0.604136
0.608696
0.610936
0.611532
0.611461
0.433658
0.433519
0.434626
0.437786
0.443603
0.452359
0.46398
0.478876
0.497376
0.519503
0.543699
0.565216
0.58175
0.594576
0.60462
0.61239
0.617595
0.620031
0.620626
0.620529
0.402142
0.402024
0.40374
0.408278
0.416389
0.428383
0.443946
0.463335
0.48664
0.513651
0.542399
0.56748
0.586569
0.601367
0.612963
0.621891
0.627643
0.630177
0.630725
0.630595
0.359209
0.359253
0.362306
0.369717
0.382077
0.399352
0.420746
0.446186
0.475479
0.508196
0.541972
0.570816
0.592531
0.609334
0.622484
0.632492
0.638591
0.641064
0.641514
0.64135
0.297132
0.298323
0.305788
0.319604
0.339725
0.365398
0.395004
0.428152
0.464531
0.503606
0.542699
0.575373
0.599692
0.61843
0.633012
0.643848
0.65003
0.652204
0.652486
0.652298
0.223481
0.225222
0.239508
0.26323
0.294234
0.329824
0.368393
0.409761
0.45374
0.49984
0.545115
0.582544
0.610255
0.63147
0.647835
0.659555
0.665704
0.667668
0.667915
0.667821
0.147458
0.1536
0.174702
0.20862
0.249994
0.29521
0.342712
0.392366
0.444049
0.497303
0.548944
0.591294
0.622506
0.64636
0.664678
0.677102
0.682833
0.684355
0.684528
0.684495
0.085267
0.0937033
0.119363
0.160272
0.209768
0.263201
0.318756
0.376155
0.43518
0.495319
0.553076
0.600078
0.634541
0.660708
0.680415
0.693296
0.69898
0.700334
0.700561
0.700589
0.0346728
0.0437045
0.0729034
0.119036
0.174667
0.234724
0.297094
0.361347
0.427092
0.493689
0.557241
0.608651
0.646142
0.674459
0.695646
0.709071
0.714712
0.716373
0.716685
0.716759
-0.00769655
0.00161838
0.0332651
0.0833911
0.144061
0.20962
0.277774
0.348019
0.419801
0.492346
0.561342
0.616935
0.657325
0.68773
0.710295
0.724555
0.730677
0.73262
0.732962
0.733047
-0.0441933
-0.034764
-0.00127384
0.0520534
0.116888
0.187138
0.26033
0.33588
0.413132
0.49118
0.565301
0.624877
0.66805
0.700469
0.724428
0.739606
0.746303
0.748414
0.748804
0.748885
-0.0764819
-0.0670117
-0.0321054
0.0239245
0.0922468
0.166541
0.244193
0.324523
0.406792
0.489966
0.568934
0.632302
0.678123
0.712432
0.737713
0.753739
0.761017
0.76331
0.76372
0.763774
-0.105839
-0.0963233
-0.0602534
-0.00188672
0.0694257
0.147261
0.228879
0.313543
0.400437
0.488435
0.57203
0.639036
0.687375
0.723429
0.74991
0.766661
0.774502
0.776965
0.777393
0.777437
-0.133134
-0.123565
-0.0864644
-0.0260979
0.0478838
0.128854
0.214014
0.302621
0.393812
0.486378
0.574439
0.644979
0.695723
0.733425
0.760946
0.778297
0.786526
0.789134
0.78958
0.789602
-0.158926
-0.149294
-0.111225
-0.0491721
0.027222
0.110983
0.199336
0.291544
0.386727
0.483636
0.57605
0.650089
0.703193
0.74245
0.7709
0.788722
0.797143
0.799851
0.800303
0.8003
-0.183718
-0.173922
-0.135003
-0.0713533
0.00717289
0.0934217
0.18466
0.280152
0.379051
0.480097
0.576788
0.654352
0.709839
0.750605
0.779891
0.798026
0.806517
0.809228
0.809682
0.809643
-0.207747
-0.197726
-0.158056
-0.0928643
-0.0124471
0.0760248
0.169862
0.268354
0.370696
0.475686
0.576601
0.657761
0.715724
0.758024
0.788041
0.806374
0.814851
0.817523
0.81794
0.817876
-0.231119
-0.220888
-0.180419
-0.113854
-0.0317489
0.0587199
0.154885
0.256099
0.361619
0.470342
0.575429
0.660316
0.72092
0.764855
0.795588
0.814011
0.822357
0.824924
0.825288
0.825205
-0.253995
-0.243461
-0.202237
-0.134395
-0.0507767
0.0414691
0.139713
0.243379
0.35181
0.464042
0.573221
0.661993
0.725491
0.77124
0.802691
0.821066
0.829175
0.831556
0.831833
0.831718
-0.276337
-0.265526
-0.223566
-0.154523
-0.0695393
0.0242819
0.124375
0.230225
0.341287
0.456775
0.569934
0.662744
0.729462
0.777303
0.809529
0.82769
0.835347
0.837444
0.837608
0.837469
-0.298204
-0.287085
-0.244341
-0.174225
-0.0880196
0.00718893
0.108908
0.216694
0.330102
0.44856
0.565529
0.662499
0.732809
0.783151
0.816328
0.834103
0.841016
0.842653
0.842678
0.84252
-0.319423
-0.308067
-0.264558
-0.193464
-0.106172
-0.00974059
0.093376
0.202853
0.318324
0.439451
0.559984
0.661174
0.735451
0.788825
0.823352
0.840705
0.846486
0.847314
0.847101
0.846937
-0.340135
-0.328432
-0.284203
-0.212218
-0.123966
-0.0264694
0.0778703
0.188782
0.306038
0.429525
0.553308
0.658662
0.737238
0.794247
0.830797
0.848076
0.85242
0.851771
0.850958
0.850786
-0.360176
-0.348157
-0.303249
-0.230443
-0.141324
-0.0429139
0.0624702
0.1746
0.293355
0.418846
0.545538
0.654859
0.737971
0.799179
0.838601
0.856841
0.860134
0.85722
0.854748
0.853789
-0.379608
-0.367284
-0.321641
-0.248091
-0.15821
-0.0590052
0.047259
0.160386
0.280382
0.407549
0.536741
0.649662
0.737413
0.803213
0.846236
0.867056
0.871171
0.866855
0.860354
0.851921
-0.398346
-0.385771
-0.339473
-0.265314
-0.174831
-0.0750135
0.0319071
0.145747
0.266682
0.395142
0.526394
0.642523
0.735076
0.805986
0.853021
0.877991
0.88581
0.881795
0.871493
0.866096
-0.416345
-0.403542
-0.35673
-0.282084
-0.191192
-0.0909336
0.0164275
0.130664
0.252205
0.381505
0.514295
0.633052
0.73017
0.80669
0.856954
0.885301
0.895496
0.895497
0.857707
0.805865
-0.433309
-0.419817
-0.373268
-0.298328
-0.207394