/*--------------------------------*- C++ -*----------------------------------*\
  =========                 |
  \\      /  F ield         | OpenFOAM: The Open Source CFD Toolbox
   \\    /   O peration     | Website:  https://openfoam.org
    \\  /    A nd           | Version:  9
     \\/     M anipulation  |
\*---------------------------------------------------------------------------*/
FoamFile
{
    format      ascii;
    class       volVectorField;
    location    "58";
    object      U;
}
// * * * * * * * * * * * * * * * * * * * * * * * * * * * * * * * * * * * * * //

dimensions      [0 1 -1 0 0 0 0];

internalField   nonuniform List<vector> 
8800
(
(0.980139 -0.0915209 0)
(1.00234 -0.0587304 0)
(0.999578 -0.0321302 0)
(0.999971 -0.0165248 0)
(1.00006 -0.00884511 0)
(1.00008 -0.0050995 0)
(1.00005 -0.00299476 0)
(1.00002 -0.0016835 0)
(0.999999 -0.000782242 0)
(1.00006 -8.35148e-05 0)
(0.999987 0.000624929 0)
(0.999995 0.00137989 0)
(1.00002 0.00240504 0)
(1.00004 0.00400665 0)
(1.00004 0.00675084 0)
(0.999995 0.0120518 0)
(0.999794 0.0230953 0)
(0.99903 0.0431567 0)
(1.00724 0.0790257 0)
(0.775025 0.0478395 0)
(0.358989 -0.0147484 0)
(1.0465 -0.0724827 0)
(1.08847 -0.0660202 0)
(1.04943 -0.0509149 0)
(1.02553 -0.0376954 0)
(1.01273 -0.0258898 0)
(1.00657 -0.0166927 0)
(1.00363 -0.0102005 0)
(1.00219 -0.00556761 0)
(1.00151 -0.00197198 0)
(1.00138 0.001242 0)
(1.00173 0.0045515 0)
(1.0027 0.00844087 0)
(1.00475 0.0137519 0)
(1.00898 0.0214243 0)
(1.01795 0.0319121 0)
(1.03578 0.0446827 0)
(1.06741 0.0581228 0)
(1.09469 0.0699561 0)
(0.845617 0.0555084 0)
(0.2178 -0.00138043 0)
(1.07568 -0.050645 0)
(1.09941 -0.0489267 0)
(1.06438 -0.0400094 0)
(1.0399 -0.0325493 0)
(1.02381 -0.0253343 0)
(1.01403 -0.0181107 0)
(1.00852 -0.0114836 0)
(1.00566 -0.00572157 0)
(1.00448 -0.000426966 0)
(1.00479 0.00468619 0)
(1.00663 0.00997294 0)
(1.01056 0.0159391 0)
(1.01789 0.0226895 0)
(1.03049 0.0297845 0)
(1.05047 0.0368657 0)
(1.08002 0.0446373 0)
(1.10563 0.051957 0)
(0.943233 0.041019 0)
(0.217168 0.00140611 0)
(0.176664 -0.000628267 0)
(1.01942 -0.0354524 0)
(1.10572 -0.041393 0)
(1.07798 -0.0363739 0)
(1.05246 -0.0303269 0)
(1.03524 -0.0244479 0)
(1.02338 -0.0186466 0)
(1.01557 -0.0126406 0)
(1.01095 -0.00653634 0)
(1.00891 -0.000292571 0)
(1.00943 0.00586766 0)
(1.0125 0.0117817 0)
(1.01846 0.0175437 0)
(1.02805 0.0231079 0)
(1.04224 0.028645 0)
(1.06305 0.0344174 0)
(1.09382 0.0402965 0)
(1.09438 0.0418123 0)
(0.830111 0.0227908 0)
(0.175584 0.000648909 0)
(0.154766 -0.000462045 0)
(0.95824 -0.025677 0)
(1.10443 -0.0350922 0)
(1.0881 -0.0326385 0)
(1.06129 -0.0281292 0)
(1.04325 -0.0231637 0)
(1.03086 -0.017854 0)
(1.02226 -0.0123019 0)
(1.0167 -0.00638122 0)
(1.01403 8.09288e-05 0)
(1.01466 0.00654407 0)
(1.01843 0.0124149 0)
(1.02521 0.017722 0)
(1.03535 0.0227151 0)
(1.05007 0.0275239 0)
(1.07199 0.0319526 0)
(1.10094 0.0358218 0)
(1.0696 0.0340163 0)
(0.74238 0.0144707 0)
(0.153147 0.000485205 0)
(0.140095 -0.000333921 0)
(0.901269 -0.0193106 0)
(1.09686 -0.0301942 0)
(1.09626 -0.0293101 0)
(1.06902 -0.0255246 0)
(1.05019 -0.021435 0)
(1.03722 -0.0167267 0)
(1.02822 -0.0114661 0)
(1.02226 -0.00573197 0)
(1.01926 0.00063296 0)
(1.01986 0.00700916 0)
(1.02383 0.012658 0)
(1.03085 0.0176285 0)
(1.04136 0.0220797 0)
(1.0567 0.0260079 0)
(1.07949 0.02951 0)
(1.10322 0.0322147 0)
(1.03775 0.0281898 0)
(0.675483 0.0103283 0)
(0.137814 0.00036142 0)
(0.129372 -0.000252435 0)
(0.851439 -0.0149124 0)
(1.08454 -0.0260919 0)
(1.10196 -0.0264313 0)
(1.07587 -0.0231078 0)
(1.05653 -0.0194486 0)
(1.04313 -0.0152426 0)
(1.03376 -0.0103681 0)
(1.02752 -0.00485691 0)
(1.02429 0.00132207 0)
(1.02477 0.00748241 0)
(1.02875 0.0128468 0)
(1.03593 0.017393 0)
(1.04671 0.0212392 0)
(1.06242 0.0245687 0)
(1.08565 0.0275915 0)
(1.10241 0.0293938 0)
(1.00299 0.0236612 0)
(0.623341 0.00793028 0)
(0.126282 0.000285887 0)
(0.121201 -0.000193606 0)
(0.808988 -0.0117266 0)
(1.06926 -0.0224966 0)
(1.1055 -0.0238015 0)
(1.08213 -0.0209313 0)
(1.06234 -0.0174991 0)
(1.04866 -0.0135759 0)
(1.03903 -0.00902453 0)
(1.03252 -0.00378954 0)
(1.02905 0.00215389 0)
(1.02937 0.00804328 0)
(1.0333 0.0130536 0)
(1.04053 0.0171428 0)
(1.05141 0.0205145 0)
(1.06737 0.0234463 0)
(1.09098 0.0261523 0)
(1.09873 0.0270463 0)
(0.967805 0.020101 0)
(0.581463 0.00636754 0)
(0.117128 0.000234224 0)
(0.114869 -0.000148992 0)
(0.773196 -0.00934268 0)
(1.05242 -0.0193321 0)
(1.10786 -0.0213729 0)
(1.08801 -0.0188854 0)
(1.0678 -0.0156159 0)
(1.05387 -0.0118633 0)
(1.04405 -0.00751559 0)
(1.03731 -0.00252209 0)
(1.03358 0.0031576 0)
(1.03368 0.00873383 0)
(1.03748 0.0133642 0)
(1.04465 0.0170499 0)
(1.05555 0.0200444 0)
(1.07174 0.0226464 0)
(1.09504 0.0250074 0)
(1.09223 0.0250994 0)
(0.933545 0.0173461 0)
(0.546844 0.00529619 0)
(0.109602 0.00019831 0)
(0.109927 -0.000113738 0)
(0.743139 -0.00749578 0)
(1.03511 -0.0165254 0)
(1.10926 -0.0190899 0)
(1.09359 -0.0169193 0)
(1.07308 -0.0137523 0)
(1.05886 -0.0100997 0)
(1.04885 -0.00587982 0)
(1.0419 -0.00106173 0)
(1.0379 0.00436575 0)
(1.03771 0.00961672 0)
(1.04129 0.0138846 0)
(1.04832 0.0172083 0)
(1.05922 0.0198561 0)
(1.07563 0.0221691 0)
(1.09783 0.0241632 0)
(1.08329 0.0234944 0)
(0.900802 0.0152447 0)
(0.517418 0.00454707 0)
(0.103208 0.000173502 0)
(0.106083 -8.46587e-05 0)
(0.717993 -0.00600954 0)
(1.01816 -0.0140068 0)
(1.10981 -0.0168847 0)
(1.09905 -0.0149997 0)
(1.07827 -0.0118525 0)
(1.06375 -0.00824114 0)
(1.05352 -0.00409374 0)
(1.04632 0.000606111 0)
(1.042 0.0058172 0)
(1.04147 0.0107604 0)
(1.04475 0.0146874 0)
(1.0516 0.017669 0)
(1.06248 0.0199779 0)
(1.07907 0.0220276 0)
(1.09927 0.0236381 0)
(1.07231 0.0222276 0)
(0.869712 0.0136838 0)
(0.491723 0.00402864 0)
(0.0976005 0.000157298 0)
(0.103145 -5.95516e-05 0)
(0.697114 -0.0047656 0)
(1.00217 -0.0117092 0)
(1.10967 -0.0147212 0)
(1.10435 -0.0130469 0)
(1.08344 -0.00987566 0)
(1.0686 -0.00624805 0)
(1.05811 -0.00211104 0)
(1.05061 0.00251786 0)
(1.04591 0.00756367 0)
(1.04494 0.012234 0)
(1.04786 0.0158303 0)
(1.05449 0.0184701 0)
(1.06532 0.0204477 0)
(1.08207 0.0222366 0)
(1.09971 0.02343 0)
(1.05957 0.0212996 0)
(0.840129 0.0125706 0)
(0.468666 0.00368311 0)
(0.0925179 0.000147746 0)
(0.100991 -3.64783e-05 0)
(0.680027 -0.00367544 0)
(0.987608 -0.00956272 0)
(1.10904 -0.0125117 0)
(1.10944 -0.0109626 0)
(1.08869 -0.00774362 0)
(1.07349 -0.0040434 0)
(1.06268 0.000141624 0)
(1.05482 0.00475019 0)
(1.04964 0.00967516 0)
(1.04816 0.0140936 0)
(1.05065 0.0173687 0)
(1.05702 0.0196705 0)
(1.06777 0.0213039 0)
(1.08458 0.0228243 0)
(1.09916 0.0236097 0)
(1.04524 0.0207397 0)
(0.811742 0.0118375 0)
(0.447394 0.00347375 0)
(0.0877573 0.000143666 0)
(0.0995576 -1.37557e-05 0)
(0.666425 -0.00266975 0)
(0.974831 -0.00749356 0)
(1.10823 -0.0102009 0)
(1.11447 -0.00869847 0)
(1.09407 -0.00540221 0)
(1.07849 -0.00156854 0)
(1.0673 0.00272727 0)
(1.05899 0.00737947 0)
(1.05323 0.01223 0)
(1.05112 0.0164179 0)
(1.0531 0.0193702 0)
(1.05915 0.0213281 0)
(1.0698 0.0226038 0)
(1.08664 0.0238588 0)
(1.09739 0.024189 0)
(1.02941 0.0205164 0)
(0.784152 0.0114239 0)
(0.427225 0.00337231 0)
(0.0831582 0.000143686 0)
(0.0988261 1.0536e-05 0)
(0.65615 -0.0016936 0)
(0.964154 -0.00542768 0)
(1.10756 -0.00771797 0)
(1.11956 -0.0061737 0)
(1.09967 -0.00275414 0)
(1.08367 0.0012795 0)
(1.07204 0.00574853 0)
(1.06318 0.0105063 0)
(1.05671 0.015328 0)
(1.05384 0.0193036 0)
(1.05519 0.02193 0)
(1.06086 0.0235189 0)
(1.07139 0.0244082 0)
(1.08817 0.0253707 0)
(1.09435 0.025199 0)
(1.01207 0.0206691 0)
(0.756911 0.0113022 0)
(0.407586 0.0033655 0)
(0.0785876 0.000147559 0)
(0.098817 3.257e-05 0)
(0.649173 -0.000700781 0)
(0.955879 -0.00329456 0)
(1.10738 -0.00499466 0)
(1.12486 -0.00329884 0)
(1.1056 0.000311453 0)
(1.08913 0.00461317 0)
(1.07697 0.00932465 0)
(1.06743 0.0142542 0)
(1.06011 0.0190872 0)
(1.05632 0.0228537 0)
(1.05692 0.0251369 0)
(1.06213 0.0263367 0)
(1.07252 0.0268193 0)
(1.08895 0.02742 0)
(1.08982 0.0266807 0)
(0.99308 0.0212208 0)
(0.729515 0.0114545 0)
(0.38796 0.00344423 0)
(0.0739244 0.000154823 0)
(0.0995659 7.01654e-05 0)
(0.645571 0.000320128 0)
(0.950322 -0.00101758 0)
(1.10804 -0.00194704 0)
(1.13059 1.06845e-05 0)
(1.11195 0.00388072 0)
(1.09497 0.00853448 0)
(1.08216 0.0135785 0)
(1.0718 0.0187539 0)
(1.06343 0.0236502 0)
(1.05854 0.0272208 0)
(1.05826 0.0291342 0)
(1.06291 0.0299086 0)
(1.07311 0.0299582 0)
(1.08886 0.0301377 0)
(1.08364 0.0286801 0)
(0.97221 0.0222014 0)
(0.701414 0.0118707 0)
(0.367861 0.00360136 0)
(0.0690602 0.000165022 0)
(0.10128 9.84854e-05 0)
(0.645726 0.0014804 0)
(0.94783 0.00148844 0)
(1.10996 0.00153687 0)
(1.13692 0.00386962 0)
(1.11886 0.00812989 0)
(1.10129 0.0132346 0)
(1.0877 0.0186972 0)
(1.07634 0.0241882 0)
(1.06669 0.0291836 0)
(1.06048 0.0325489 0)
(1.05916 0.0340373 0)
(1.06315 0.0343521 0)
(1.07311 0.0339331 0)
(1.08766 0.0336278 0)
(1.07551 0.0312891 0)
(0.949123 0.0236362 0)
(0.672025 0.0125459 0)
(0.346836 0.00383106 0)
(0.0638983 0.000177641 0)
(0.104018 0.000145667 0)
(0.650007 0.00290826 0)
(0.948903 0.00437057 0)
(1.11365 0.00556374 0)
(1.1441 0.00844325 0)
(1.12648 0.0132425 0)
(1.10823 0.0189086 0)
(1.09368 0.0248933 0)
(1.08108 0.0307758 0)
(1.06989 0.0358872 0)
(1.06209 0.0390009 0)
(1.05955 0.0399972 0)
(1.06277 0.0398156 0)
(1.07243 0.0388633 0)
(1.08516 0.0380141 0)
(1.06513 0.0346083 0)
(0.923356 0.0255814 0)
(0.640715 0.0134832 0)
(0.324442 0.00413004 0)
(0.0583522 0.000192233 0)
(0.108056 0.000207462 0)
(0.65897 0.00458696 0)
(0.953996 0.007784 0)
(1.11958 0.0103148 0)
(1.15241 0.0139262 0)
(1.13503 0.0194214 0)
(1.11593 0.0257874 0)
(1.10021 0.0324212 0)
(1.08608 0.0387714 0)
(1.07301 0.0440104 0)
(1.06335 0.0468147 0)
(1.05938 0.0472411 0)
(1.06166 0.0464773 0)
(1.07099 0.0449102 0)
(1.08139 0.0434595 0)
(1.05204 0.0387394 0)
(0.894312 0.0280562 0)
(0.606791 0.0146702 0)
(0.300251 0.00448722 0)
(0.0523493 0.000207679 0)
(0.11373 0.000290997 0)
(0.673326 0.00667346 0)
(0.96376 0.0119285 0)
(1.12834 0.0160363 0)
(1.16217 0.0205992 0)
(1.14474 0.0270203 0)
(1.1246 0.034256 0)
(1.10739 0.0416552 0)
(1.09135 0.0485175 0)
(1.07602 0.0538345 0)
(1.06415 0.0562062 0)
(1.05852 0.0559414 0)
(1.05975 0.0545059 0)
(1.06863 0.0522869 0)
(1.07613 0.050084 0)
(1.0357 0.0437757 0)
(0.861271 0.031084 0)
(0.569534 0.016084 0)
(0.273882 0.00488647 0)
(0.0458453 0.000222626 0)
(0.121547 0.000410706 0)
(0.694009 0.00940107 0)
(0.979071 0.0171027 0)
(1.14059 0.023068 0)
(1.17388 0.0288606 0)
(1.15592 0.0365027 0)
(1.13439 0.0447817 0)
(1.11526 0.0530463 0)
(1.09683 0.0604114 0)
(1.07876 0.0656734 0)
(1.06435 0.0674186 0)
(1.05682 0.066282 0)
(1.05692 0.0640696 0)
(1.06533 0.0610933 0)
(1.06907 0.0580162 0)
(1.01542 0.0497864 0)
(0.823382 0.0346462 0)
(0.528227 0.0176716 0)
(0.245043 0.00529925 0)
(0.0388361 0.0002349 0)
(0.132216 0.000580158 0)
(0.722319 0.0131519 0)
(1.00109 0.0237942 0)
(1.15711 0.0319602 0)
(1.18813 0.0392873 0)
(1.1689 0.0484945 0)
(1.14546 0.0580064 0)
(1.12383 0.0671938 0)
(1.10242 0.0749433 0)
(1.0811 0.079894 0)
(1.06378 0.0807179 0)
(1.05415 0.0784847 0)
(1.05302 0.0753087 0)
(1.06082 0.0714322 0)
(1.05964 0.0672957 0)
(0.990275 0.0567892 0)
(0.779698 0.0386695 0)
(0.482224 0.0193406 0)
(0.213602 0.00568386 0)
(0.0313777 0.000241926 0)
(0.147022 0.00085693 0)
(0.760277 0.0185266 0)
(1.03146 0.0327833 0)
(1.17882 0.0436609 0)
(1.20565 0.0529802 0)
(1.18401 0.0640705 0)
(1.15788 0.0749171 0)
(1.13295 0.0848865 0)
(1.10786 0.0926854 0)
(1.08273 0.0968713 0)
(1.06219 0.0963534 0)
(1.05034 0.0927396 0)
(1.04792 0.0884202 0)
(1.05468 0.0835739 0)
(1.04711 0.0781196 0)
(0.959153 0.0647045 0)
(0.729249 0.0429977 0)
(0.431104 0.0209443 0)
(0.179702 0.00598254 0)
(0.023608 0.000240638 0)
(0.168144 0.00133222 0)
(0.811138 0.0266969 0)
(1.07273 0.0456274 0)
(1.20687 0.0599987 0)
(1.2271 0.0720621 0)
(1.20133 0.0848576 0)
(1.17137 0.0968276 0)
(1.14217 0.107059 0)
(1.11267 0.114229 0)
(1.08326 0.11693 0)
(1.05927 0.114475 0)
(1.04516 0.109109 0)
(1.04148 0.103458 0)
(1.04683 0.0976399 0)
(1.03065 0.0902903 0)
(0.920652 0.0732631 0)
(0.671256 0.0473398 0)
(0.374968 0.0222786 0)
(0.143946 0.0061235 0)
(0.0157766 0.000227101 0)
(0.198961 0.00238704 0)
(0.880603 0.0403607 0)
(1.12859 0.0661644 0)
(1.24172 0.0845304 0)
(1.25221 0.0991936 0)
(1.22025 0.11313 0)
(1.18511 0.125284 0)
(1.15069 0.13468 0)
(1.11613 0.140125 0)
(1.08211 0.140345 0)
(1.05463 0.135193 0)
(1.03836 0.127618 0)
(1.03354 0.120403 0)
(1.03697 0.11347 0)
(1.00899 0.10367 0)
(0.873155 0.0819751 0)
(0.605556 0.0512528 0)
(0.315149 0.0231653 0)
(0.107876 0.00607726 0)
(0.00836724 0.000198821 0)
(0.240967 0.00860623 3.77497e-20)
(0.972781 0.0676125 3.31222e-20)
(1.19679 0.100551 -1.16725e-20)
(1.28024 0.120901 0)
(1.27821 0.137956 -3.07988e-34)
(1.23866 0.15123 4.52851e-21)
(1.19759 0.161834 -8.30761e-21)
(1.1574 0.168993 0)
(1.11745 0.171631 1.73792e-34)
(1.07853 0.168562 -1.05711e-20)
(1.04732 0.160227 0)
(1.02867 0.150234 -1.26768e-20)
(1.02272 0.141515 -3.74753e-20)
(1.02379 0.134108 -1.77376e-20)
(0.978743 0.120951 -5.35019e-21)
(0.811215 0.0926661 -3.18225e-21)
(0.526714 0.0553414 0)
(0.249792 0.0239819 2.22688e-21)
(0.0716598 0.00617455 2.62921e-21)
(0.00143203 0.000196506 4.73555e-20)
(0.270439 0.024028 2.53663e-20)
(1.04886 0.110171 5.32358e-22)
(1.25305 0.149548 3.01142e-21)
(1.31456 0.170091 0)
(1.30096 0.186997 -1.5326e-20)
(1.25438 0.198078 -1.76099e-20)
(1.2074 0.206343 -8.3102e-21)
(1.16133 0.210978 -3.0074e-20)
(1.11567 0.210778 0)
(1.07133 0.20448 4.49977e-20)
(1.03576 0.19304 4.4868e-20)
(1.01434 0.180624 1.3387e-20)
(1.0063 0.169903 4.90448e-20)
(1.00015 0.16 6.91672e-20)
(0.932002 0.141894 0)
(0.728769 0.104907 9.76735e-20)
(0.434815 0.059819 1.40129e-19)
(0.181891 0.024417 1.55635e-19)
(0.036104 0.00520019 -1.77917e-19)
(-0.00544118 -0.000435045 -3.34846e-21)
(0.271515 0.0397834 0)
(1.09689 0.165345 3.94101e-21)
(1.2908 0.209827 0)
(1.34115 0.229853 -1.84655e-20)
(1.31872 0.243725 0)
(1.26621 0.250956 -3.40218e-20)
(1.21367 0.255492 1.68561e-20)
(1.16204 0.256536 -6.00186e-20)
(1.11095 0.25267 -1.57426e-21)
(1.06143 0.242564 2.32096e-20)
(1.02166 0.22765 9.90155e-20)
(0.997432 0.212599 -2.51749e-22)
(0.986972 0.199875 -3.57174e-20)
(0.973897 0.187385 -6.5358e-20)
(0.889889 0.163699 7.7429e-20)
(0.671143 0.117417 -1.37184e-19)
(0.383449 0.0645779 -1.8139e-20)
(0.149526 0.0250624 0)
(0.0205012 0.00388057 -8.87703e-24)
(-0.0085425 -0.00122463 0)
(0.265213 0.053433 3.7287e-20)
(1.12274 0.223829 -2.0371e-20)
(1.31398 0.27457 -1.85248e-20)
(1.35869 0.294781 8.35364e-21)
(1.33009 0.30478 -1.42678e-20)
(1.27313 0.307509 7.10309e-20)
(1.21602 0.307656 3.5052e-20)
(1.15957 0.304491 0)
(1.1036 0.296446 -1.15154e-19)
(1.04928 0.282115 0)
(1.00552 0.263441 -5.1913e-20)
(0.978571 0.245614 -6.45965e-20)
(0.965702 0.230698 -3.89997e-20)
(0.94724 0.215307 -4.75801e-20)
(0.854831 0.186255 0)
(0.634182 0.132116 0)
(0.358101 0.0723873 -1.18241e-19)
(0.136699 0.0274144 2.33941e-20)
(0.0140896 0.00292428 -1.36807e-20)
(-0.0103588 -0.00207014 -1.60034e-20)
(0.257717 0.0655116 -4.20841e-21)
(1.13408 0.282176 0)
(1.32664 0.340248 3.23472e-20)
(1.36813 0.361117 2.22408e-20)
(1.33519 0.367314 3.39597e-20)
(1.27497 0.365534 0)
(1.21425 0.361204 3.37382e-20)
(1.15381 0.353658 6.6155e-20)
(1.09362 0.341235 5.86711e-20)
(1.03499 0.322494 1.09911e-19)
(0.987546 0.299956 0)
(0.957938 0.279249 -1.39578e-19)
(0.942666 0.262047 -8.44413e-20)
(0.920223 0.243925 -5.00136e-20)
(0.825166 0.209954 3.07705e-19)
(0.61063 0.14897 3.66374e-20)
(0.347984 0.083023 1.71954e-19)
(0.136718 0.0318741 -8.14671e-19)
(0.0148317 0.00306507 4.81841e-19)
(-0.0107312 -0.00269357 -5.80862e-19)
(0.250533 0.0764246 1.14062e-20)
(1.13615 0.338543 3.75383e-22)
(1.33165 0.404958 -2.11799e-21)
(1.37104 0.426978 -1.812e-20)
(1.33496 0.42961 -2.61025e-20)
(1.27231 0.423513 1.80065e-21)
(1.20874 0.414865 -3.66797e-20)
(1.145 0.403014 6.81077e-20)
(1.0812 0.386256 -1.26493e-19)
(1.01875 0.363114 0)
(0.967909 0.336638 -6.30183e-20)
(0.935726 0.31294 -1.61739e-21)
(0.918147 0.293485 -9.26796e-20)
(0.892788 0.272707 0)
(0.798666 0.234429 -6.6858e-20)
(0.594219 0.167841 -1.58922e-19)
(0.346308 0.0960004 4.23348e-19)
(0.143025 0.0384492 -4.17387e-19)
(0.0205699 0.00487909 5.92894e-19)
(-0.00961833 -0.00290051 -6.16048e-19)
(0.244502 0.0865205 -4.12013e-22)
(1.13247 0.392282 3.98991e-21)
(1.33116 0.467709 1.39343e-21)
(1.36886 0.491156 5.17819e-21)
(1.33047 0.490624 -1.27697e-20)
(1.26599 0.4805 0)
(1.20012 0.467786 -3.31004e-20)
(1.13362 0.45184 -7.11066e-20)
(1.06667 0.430912 -6.55133e-20)
(1.00079 0.403469 0)
(0.946802 0.37308 -6.52755e-20)
(0.912204 0.346477 -8.15681e-20)
(0.892485 0.324879 1.00791e-19)
(0.864912 0.301591 -6.14396e-20)
(0.773522 0.259407 -2.93319e-19)
(0.580372 0.188153 1.7442e-19)
(0.347617 0.110331 5.19061e-20)
(0.151803 0.0466954 0)
(0.0286809 0.00815742 -5.75492e-19)
(-0.00764536 -0.00269655 -2.11279e-20)
(0.239724 0.0961103 4.84594e-21)
(1.12535 0.443202 -7.03465e-21)
(1.32668 0.528025 -2.06359e-21)
(1.36283 0.552943 2.16892e-20)
(1.32265 0.549682 -4.31441e-20)
(1.25678 0.5359 6.15449e-20)
(1.18903 0.519424 7.14925e-20)
(1.12019 0.499653 -1.13607e-19)
(1.05048 0.474792 4.12828e-20)
(0.98149 0.443218 -2.70987e-19)
(0.924603 0.409098 -7.43041e-20)
(0.887759 0.379752 0)
(0.866023 0.35602 1.09593e-19)
(0.836699 0.330288 1.31827e-19)
(0.748218 0.284562 1.5822e-19)
(0.566426 0.209079 -1.90159e-19)
(0.3478 0.125521 -5.6346e-20)
(0.160011 0.0563207 6.61068e-20)
(0.0371807 0.0125102 0)
(-0.00528299 -0.00213157 -4.60162e-20)
(0.236108 0.105354 -7.44506e-20)
(1.1164 0.491406 4.15983e-20)
(1.31949 0.585847 3.87082e-21)
(1.35397 0.612013 1.02209e-20)
(1.31231 0.606381 -1.69628e-20)
(1.24537 0.589304 -4.07584e-21)
(1.17609 0.569418 -7.86082e-20)
(1.10524 0.546143 -4.12398e-20)
(1.03307 0.517611 -1.14185e-19)
(0.961218 0.482146 3.08325e-22)
(0.901651 0.444482 -2.32307e-19)
(0.86272 0.412412 1.98117e-19)
(0.839129 0.386463 -1.20864e-19)
(0.808375 0.358426 1.45876e-19)
(0.722166 0.30933 0)
(0.551036 0.229957 -1.0358e-19)
(0.345172 0.14095 6.49706e-23)
(0.165749 0.066393 -2.89416e-19)
(0.044422 0.017375 -4.24636e-20)
(-0.00296151 -0.00135083 0)
(0.233516 0.114399 0)
(1.10654 0.537118 4.79466e-20)
(1.31038 0.641206 1.97404e-20)
(1.34308 0.668224 -6.20743e-21)
(1.30014 0.660505 -2.47521e-20)
(1.23235 0.640482 0)
(1.16182 0.617539 -3.41654e-20)
(1.08923 0.591092 -1.06352e-21)
(1.01482 0.559192 2.44932e-19)
(0.940305 0.520098 -3.70691e-20)
(0.878204 0.478978 -1.68022e-19)
(0.837307 0.444083 1.02772e-19)
(0.812052 0.415959 -2.21932e-21)
(0.779977 0.385583 1.55137e-19)
(0.695637 0.332945 9.61441e-20)
(0.533859 0.249433 -2.24053e-19)
(0.3392 0.155588 2.65394e-19)
(0.167815 0.0758493 7.8635e-20)
(0.0492048 0.0219356 3.24016e-19)
(-0.00110494 -0.000567721 -8.65266e-19)
(0.2319 0.123368 -2.4851e-20)
(1.09644 0.580527 3.36162e-20)
(1.30011 0.693625 -2.27554e-20)
(1.33074 0.721537 -1.47151e-21)
(1.28669 0.711944 0)
(1.21824 0.689304 -2.48293e-20)
(1.14665 0.663655 1.16501e-19)
(1.07252 0.634367 8.97969e-20)
(0.996057 0.599416 0)
(0.919016 0.556956 -5.3645e-19)
(0.854441 0.512424 4.5525e-19)
(0.811675 0.47471 0)
(0.784962 0.444498 1.41621e-19)
(0.751557 0.411598 -2.23049e-21)
(0.668417 0.355062 -3.07562e-19)
(0.514478 0.267024 1.20359e-19)
(0.329995 0.168543 0)
(0.165965 0.0838466 4.24386e-19)
(0.0510719 0.0255368 0)
(8.39624e-05 3.61623e-05 -4.10084e-19)
(0.231074 0.132351 2.98845e-20)
(1.08654 0.621791 4.38309e-20)
(1.28895 0.743221 -2.25466e-20)
(1.31746 0.771939 0)
(1.27241 0.760678 -1.605e-20)
(1.20343 0.735733 0)
(1.13097 0.707695 -1.12274e-19)
(1.05546 0.67589 -4.0501e-20)
(0.97708 0.638216 4.27084e-20)
(0.897582 0.592652 -2.65483e-19)
(0.830519 0.544818 4.68404e-20)
(0.78595 0.504412 0)
(0.757867 0.472024 -3.02439e-19)
(0.723042 0.436168 2.19963e-21)
(0.640617 0.375199 0)
(0.493057 0.282238 1.44156e-21)
(0.317574 0.179065 3.88473e-19)
(0.160811 0.0896626 -3.66962e-19)
(0.0502856 0.0277355 1.082e-19)
(0.000607053 0.000348645 0)
(0.230731 0.141211 0)
(1.07715 0.660999 5.29978e-20)
(1.27725 0.790133 3.33531e-20)
(1.30363 0.819505 -2.49677e-21)
(1.25767 0.806738 -1.40112e-21)
(1.18827 0.779767 -5.54623e-20)
(1.11507 0.749638 4.28023e-20)
(1.03831 0.715628 -4.88564e-20)
(0.958133 0.675551 1.92005e-19)
(0.876199 0.627171 -4.24324e-19)
(0.806599 0.576247 -3.89221e-21)
(0.76021 0.533248 -1.31691e-19)
(0.730716 0.498333 4.91305e-19)
(0.694372 0.458927 -2.59013e-21)
(0.612195 0.392973 -2.39023e-19)
(0.469745 0.294661 -4.2636e-19)
(0.302447 0.186888 0)
(0.152663 0.0931476 0)
(0.0474645 0.028489 1.16734e-19)
(0.000560523 0.00034339 -6.85748e-20)
(0.231023 0.150084 4.21592e-20)
(1.06826 0.698015 -1.20766e-19)
(1.26531 0.834437 -3.58566e-20)
(1.28955 0.864324 0)
(1.24275 0.850186 -1.52744e-21)
(1.17303 0.821436 -4.58203e-20)
(1.09921 0.789492 1.00094e-19)
(1.02132 0.75357 1.89066e-19)
(0.939428 0.711416 2.48495e-19)
(0.855065 0.660535 -3.4591e-19)
(0.78284 0.606808 -3.91577e-19)
(0.734491 0.561167 3.52241e-19)
(0.703438 0.523221 0)
(0.665473 0.479724 -1.08533e-19)
(0.583091 0.408175 -2.58679e-19)
(0.444744 0.304179 -3.06461e-19)
(0.284989 0.191748 -3.62557e-19)
(0.141964 0.0941389 1.0713e-19)
(0.0429524 0.0279363 -6.29191e-20)
(0.000167164 0.000145862 2.84114e-22)
(0.231442 0.158889 0)
(1.06003 0.733367 0)
(1.25335 0.876237 2.51766e-21)
(1.27543 0.906506 0)
(1.22787 0.891111 -9.43995e-21)
(1.15792 0.8608 2.68324e-20)
(1.08358 0.827284 0)
(1.00467 0.78973 2.18262e-20)
(0.92115 0.745812 4.13105e-19)
(0.83436 0.692783 -7.95723e-19)
(0.759377 0.636556 0)
(0.708823 0.588103 -2.26762e-19)
(0.675993 0.546653 -3.05785e-21)
(0.636285 0.49855 -2.41151e-21)
(0.553359 0.420658 2.76576e-19)
(0.418584 0.310649 -1.81529e-22)
(0.265565 0.193557 -7.80989e-19)
(0.12931 0.0927079 2.30469e-19)
(0.037196 0.0261207 6.81133e-20)
(-0.000446665 -0.000251343 0)
(0.231943 0.16755 -1.68928e-19)
(1.05222 0.767057 -8.18109e-20)
(1.24143 0.915614 -1.06531e-19)
(1.26143 0.946172 1.03845e-19)
(1.21321 0.929591 -3.23637e-20)
(1.1431 0.897925 0)
(1.06833 0.863057 5.78891e-20)
(0.988507 0.82413 -4.91565e-20)
(0.903445 0.778756 3.89052e-21)
(0.814247 0.72396 5.88683e-20)
(0.736334 0.665519 5.06611e-19)
(0.683243 0.61409 -7.94353e-20)
(0.648345 0.568812 -3.02935e-19)
(0.606641 0.515383 -1.26562e-19)
(0.522991 0.430105 1.50368e-19)
(0.391782 0.313812 7.64459e-24)
(0.244845 0.192198 2.10385e-19)
(0.115572 0.0889823 -4.95855e-19)
(0.0310103 0.0233486 5.861e-19)
(-0.0011499 -0.000764813 8.54471e-20)
(0.232338 0.175946 6.43164e-20)
(1.04482 0.799188 -4.62058e-20)
(1.22971 0.952664 6.23019e-21)
(1.24767 0.983428 6.73255e-20)
(1.19889 0.965737 1.36865e-20)
(1.1287 0.93288 -4.23749e-20)
(1.05358 0.896863 1.52171e-20)
(0.972949 0.856794 -2.03669e-19)
(0.886439 0.810251 -4.52658e-19)
(0.794859 0.754076 -4.73015e-19)
(0.71384 0.69372 0)
(0.657801 0.639297 -3.4962e-19)
(0.620427 0.59 4.3698e-19)
(0.576247 0.530123 0)
(0.491901 0.436138 -3.22009e-19)
(0.364739 0.313275 1.91975e-19)
(0.224 0.187459 -2.26163e-19)
(0.102052 0.0833272 -2.66793e-19)
(0.0251013 0.0200458 -4.72012e-19)
(-0.00182693 -0.00129942 -3.68015e-19)
(0.233069 0.18421 -7.28503e-20)
(1.03769 0.829743 4.94409e-20)
(1.21823 0.987459 1.12845e-19)
(1.23426 1.01834 9.88035e-20)
(1.18502 0.999644 -2.51625e-20)
(1.1148 0.965754 -1.71473e-20)
(1.03943 0.928752 5.19482e-20)
(0.958082 0.887764 -2.07155e-19)
(0.870219 0.840324 -2.67426e-19)
(0.776314 0.783145 4.93769e-19)
(0.692009 0.721196 1.11184e-18)
(0.632588 0.663988 0)
(0.592153 0.610524 0)
(0.54471 0.542711 -1.45762e-19)
(0.45977 0.438454 0)
(0.337569 0.308246 4.12744e-19)
(0.204237 0.178566 4.86307e-19)
(0.0907023 0.0757721 0)
(0.0207101 0.0166546 0)
(-0.00233609 -0.00174642 3.95396e-19)
(0.233455 0.192041 8.30403e-20)
(1.03086 0.858709 6.71233e-20)
(1.20706 1.02012 8.21247e-20)
(1.22126 1.05105 -9.58343e-20)
(1.17164 1.03142 -3.41635e-20)
(1.10146 0.996621 9.42204e-21)
(1.02593 0.958787 -6.98893e-20)
(0.943969 0.91707 -3.46512e-22)
(0.854861 0.868981 -5.05279e-21)
(0.758699 0.811159 -4.88412e-21)
(0.67098 0.747996 5.72404e-19)
(0.607737 0.688433 0)
(0.563466 0.630642 4.42772e-19)
(0.511651 0.553261 3.10907e-19)
(0.425924 0.437069 7.5182e-19)
(0.309674 0.297547 2.2231e-19)
(0.186755 0.163131 -2.61779e-19)
(0.0854741 0.0637493 -1.53709e-19)
(0.0233199 0.0122377 0)
(-0.00079942 -0.00131887 4.24834e-19)
(0.234145 0.199882 -1.8768e-19)
(1.02428 0.886191 0)
(1.19618 1.0507 9.70594e-20)
(1.2087 1.08163 -8.15833e-20)
(1.15882 1.06115 4.77555e-20)
(1.08872 1.02557 4.49157e-21)
(1.01312 0.987025 1.27859e-19)
(0.930644 0.944747 -1.75231e-20)
(0.840409 0.896234 0)
(0.742088 0.838085 -5.42305e-19)
(0.650889 0.774161 -1.24214e-18)
(0.583409 0.712856 5.1406e-20)
(0.534415 0.65055 6.10897e-19)
(0.47687 0.562181 0)
(0.389307 0.432663 5.0753e-19)
(0.278807 0.280298 0)
(0.169946 0.135986 0)
(0.0905078 0.0339177 -1.6626e-19)
(0.0535023 -0.00413934 0)
(0.0281584 0.0114936 1.13817e-19)
(0.234463 0.207128 -2.1019e-19)
(1.01792 0.912507 0)
(1.18561 1.07942 1.61899e-19)
(1.19652 1.11032 0)
(1.14651 1.08912 -2.94489e-20)
(1.07653 1.05288 0)
(1.00095 1.01378 5.00357e-21)
(0.918013 0.971135 2.80818e-20)
(0.826739 0.922444 3.34169e-20)
(0.726313 0.864306 -5.93084e-19)
(0.631556 0.800167 3.70357e-20)
(0.559378 0.737921 4.14796e-19)
(0.504587 0.670895 5.95971e-19)
(0.439581 0.570187 8.07151e-20)
(0.348015 0.426859 3.97969e-19)
(0.240189 0.257531 0)
(0.141883 0.0931905 5.52224e-19)
(0.0765162 -0.0145142 -3.23227e-19)
(0.0431579 0.0450482 3.74675e-19)
(-0.0690533 0.436082 -4.41522e-19)
(0.234765 0.214181 1.74363e-19)
(1.01152 0.937441 2.68573e-19)
(1.17525 1.10657 0)
(1.18459 1.13758 5.0352e-21)
(1.13453 1.11589 8.77197e-20)
(1.06463 1.07924 -4.72927e-20)
(0.98909 1.03985 3.96018e-20)
(0.905663 0.997168 0)
(0.813319 0.948699 2.17903e-19)
(0.710703 0.891123 -3.0556e-20)
(0.612075 0.827534 0)
(0.534393 0.765325 0)
(0.472084 0.693107 5.33616e-19)
(0.397604 0.57808 -2.49877e-19)
(0.298864 0.421765 -4.03217e-19)
(0.188945 0.2329 0)
(0.0826884 0.097136 2.78413e-19)
(0.00426405 0.439586 -3.2175e-19)
(0.0335858 1.88931 -1.75418e-19)
(0.0629292 2.81119 -2.24835e-19)
(0.234883 0.2204 -1.31322e-19)
(1.00528 0.961176 -3.45191e-19)
(1.16511 1.13215 9.65117e-20)
(1.1729 1.16326 8.00547e-20)
(1.12288 1.14122 0)
(1.05307 1.10436 -4.415e-20)
(0.977746 1.06492 4.68805e-20)
(0.893787 1.02242 -1.31695e-20)
(0.800419 0.974483 3.26318e-20)
(0.695638 0.917926 5.62342e-19)
(0.593047 0.855667 6.25133e-19)
(0.509357 0.794577 4.63228e-19)
(0.437769 0.717063 5.36493e-19)
(0.35269 0.585049 -5.86693e-19)
(0.24745 0.420967 -6.08674e-19)
(0.126309 0.272248 0)
(0.0444379 0.828886 0)
(0.101629 2.55023 1.53148e-19)
(0.102682 3.2011 0)
(0.105816 3.3881 3.63794e-19)
(0.237557 0.226089 0)
(0.999774 0.983912 0)
(1.15496 1.156 0)
(1.16123 1.18721 2.42058e-20)
(1.11124 1.16489 8.07329e-20)
(1.04165 1.12811 -4.55855e-20)
(0.96681 1.08889 2.72971e-20)
(0.882343 1.04678 -1.25954e-20)
(0.788006 0.999664 2.67189e-19)
(0.681152 0.944584 -9.25728e-21)
(0.574639 0.884512 1.23098e-18)
(0.484561 0.825362 -5.356e-20)
(0.401882 0.743739 6.47512e-20)
(0.307589 0.58907 8.48786e-20)
(0.184434 0.43433 -4.79598e-21)
(0.100849 0.960838 1.83592e-21)
(0.140877 2.71945 -8.08498e-19)
(0.149114 3.29234 -3.02808e-19)
(0.137916 3.42595 1.55349e-19)
(0.125195 3.44822 -1.72169e-19)
(0.155757 0.182887 7.79006e-20)
(0.989016 1.00841 0)
(1.14447 1.17833 -1.94283e-19)
(1.1501 1.20992 -2.17208e-19)
(1.10048 1.18769 1.90762e-19)
(1.03129 1.15117 5.30248e-20)
(0.956246 1.11182 -2.4124e-20)
(0.871444 1.07038 1.28499e-19)
(0.776247 1.02441 -2.16054e-19)
(0.667537 0.971283 0)
(0.557258 0.9143 6.01769e-19)
(0.460542 0.85738 -3.76713e-19)
(0.36552 0.775946 0)
(0.25628 0.592199 7.88734e-20)
(0.146777 0.756352 1.89456e-19)
(0.156544 2.4907 -2.2061e-19)
(0.213841 3.32286 2.47095e-19)
(0.193688 3.43907 1.31965e-19)
(0.161079 3.46073 1.47998e-19)
(0.139205 3.47107 2.32372e-19)
(0.280832 0.264736 -1.42193e-19)
(0.97401 1.01852 0)
(1.12654 1.20388 2.1149e-19)
(1.13561 1.24076 2.38685e-19)
(1.08335 1.22081 -2.11954e-19)
(1.01344 1.18469 -7.66411e-20)
(0.937478 1.14697 3.07116e-21)
(0.85218 1.10679 1.02276e-20)
(0.755709 1.06301 2.007e-19)
(0.6443 1.01375 4.76119e-19)
(0.528981 0.963702 3.35324e-20)
(0.421872 0.91169 3.33001e-19)
(0.300015 0.815613 6.0257e-20)
(0.213993 0.932716 -7.72338e-20)
(0.23053 2.33948 -1.75578e-19)
(0.29206 3.32548 1.65563e-19)
(0.275115 3.4684 -1.81356e-19)
(0.239544 3.49032 -1.04417e-19)
(0.202285 3.51805 -8.42316e-20)
(0.150729 3.51212 -9.98162e-21)
(0.268801 0.26168 0)
(0.971827 1.04136 6.1206e-20)
(1.1184 1.22746 -4.36574e-20)
(1.12519 1.26445 -2.84721e-20)
(1.07271 1.24407 -1.46895e-19)
(1.00277 1.20817 7.94434e-20)
(0.926504 1.17062 6.25274e-21)
(0.841023 1.13125 8.80826e-21)
(0.74406 1.08896 -2.05834e-19)
(0.63142 1.04254 -1.39156e-20)
(0.513475 0.997675 -1.07766e-18)
(0.401474 0.949238 4.75539e-20)
(0.284084 0.881275 -5.65819e-20)
(0.255765 1.47924 -7.09771e-20)
(0.331356 3.09741 1.8031e-20)
(0.351176 3.4661 4.44016e-22)
(0.310704 3.52262 2.50041e-19)
(0.273231 3.54925 1.17614e-19)
(0.224431 3.57283 -2.0428e-20)
(0.165348 3.56891 -4.26813e-20)
(0.252563 0.260162 1.55262e-19)
(0.968076 1.0669 4.18004e-19)
(1.10984 1.25314 -1.25373e-19)
(1.11419 1.28956 -1.07694e-19)
(1.06146 1.26868 0)
(0.991683 1.23283 1.42162e-19)
(0.915402 1.19553 2.42175e-20)
(0.830016 1.15695 7.27642e-21)
(0.732879 1.11623 -2.311e-20)
(0.619536 1.07293 -4.20854e-19)
(0.499771 1.03352 -4.92569e-19)
(0.384563 0.987963 -3.85684e-19)
(0.285029 1.00901 -4.26345e-19)
(0.325287 2.19344 4.41604e-19)
(0.418347 3.37477 3.62888e-19)
(0.395661 3.52399 0)
(0.349927 3.56918 0)
(0.311758 3.61023 -1.43855e-20)
(0.260652 3.67069 0)
(0.17771 3.64689 -4.36467e-21)
(0.241853 0.262102 -2.32918e-19)
(0.962363 1.09354 -3.5533e-19)
(1.09986 1.28004 0)
(1.10183 1.3154 6.03562e-21)
(1.04895 1.2939 -1.58868e-19)
(0.979471 1.25798 2.29799e-19)
(0.903518 1.22098 2.44807e-20)
(0.81843 1.18309 2.36672e-21)
(0.721353 1.14387 -1.36932e-19)
(0.60772 1.1037 2.03962e-20)
(0.487015 1.06968 0)
(0.367329 1.02866 0)
(0.307207 1.26253 -3.85551e-19)
(0.408943 2.87333 1.5607e-19)
(0.49046 3.48328 1.93772e-19)
(0.442359 3.5568 0)
(0.401671 3.62072 1.24892e-20)
(0.366511 3.6802 -7.35078e-20)