/*--------------------------------*- C++ -*----------------------------------*\
  =========                 |
  \\      /  F ield         | OpenFOAM: The Open Source CFD Toolbox
   \\    /   O peration     | Website:  https://openfoam.org
    \\  /    A nd           | Version:  9
     \\/     M anipulation  |
\*---------------------------------------------------------------------------*/
FoamFile
{
    format      ascii;
    class       volVectorField;
    location    "50";
    object      U;
}
// * * * * * * * * * * * * * * * * * * * * * * * * * * * * * * * * * * * * * //

dimensions      [0 1 -1 0 0 0 0];

internalField   nonuniform List<vector> 
8800
(
(0.980142 -0.0915215 0)
(1.00234 -0.05873 0)
(0.99958 -0.0321307 0)
(0.999973 -0.0165247 0)
(1.00006 -0.00884431 0)
(1.00007 -0.00509929 0)
(1.00004 -0.00299795 0)
(1.00002 -0.00168822 0)
(0.999999 -0.00078679 0)
(1.00006 -8.93416e-05 0)
(0.999988 0.000616692 0)
(0.999995 0.00136854 0)
(1.00001 0.00239376 0)
(1.00003 0.00400047 0)
(1.00004 0.00674903 0)
(0.999991 0.0120507 0)
(0.999788 0.0230953 0)
(0.999028 0.0431579 0)
(1.00723 0.0790266 0)
(0.775024 0.0478395 0)
(0.358981 -0.0147489 0)
(1.0465 -0.0724875 0)
(1.08846 -0.0660264 0)
(1.04943 -0.0509232 0)
(1.02553 -0.0377066 0)
(1.01272 -0.0259028 0)
(1.00656 -0.0167095 0)
(1.00362 -0.010221 0)
(1.00218 -0.00558989 0)
(1.00151 -0.00199716 0)
(1.00138 0.00121462 0)
(1.00173 0.00452034 0)
(1.0027 0.00840775 0)
(1.00473 0.0137224 0)
(1.00897 0.0214058 0)
(1.01795 0.0319008 0)
(1.03578 0.0446732 0)
(1.0674 0.0581144 0)
(1.09469 0.0699617 0)
(0.845627 0.0555075 0)
(0.217782 -0.00138141 0)
(1.07566 -0.0506586 0)
(1.09939 -0.0489435 0)
(1.06437 -0.0400311 0)
(1.03988 -0.0325752 0)
(1.02378 -0.0253627 0)
(1.01401 -0.0181439 0)
(1.0085 -0.0115217 0)
(1.00565 -0.00576569 0)
(1.00448 -0.000476153 0)
(1.00479 0.00463343 0)
(1.00663 0.00991718 0)
(1.01056 0.0158866 0)
(1.01788 0.0226478 0)
(1.03049 0.0297559 0)
(1.05048 0.0368444 0)
(1.08002 0.0446187 0)
(1.10564 0.0519426 0)
(0.943256 0.0410128 0)
(0.21719 0.0014054 0)
(0.176633 -0.000628944 0)
(1.01938 -0.0354683 0)
(1.10569 -0.0414192 0)
(1.07795 -0.0364083 0)
(1.05242 -0.0303667 0)
(1.0352 -0.0244909 0)
(1.02335 -0.0186953 0)
(1.01554 -0.0126968 0)
(1.01094 -0.00660266 0)
(1.0089 -0.000366869 0)
(1.00943 0.00578868 0)
(1.01251 0.0117012 0)
(1.01846 0.0174719 0)
(1.02805 0.0230493 0)
(1.04225 0.0285985 0)
(1.06307 0.0343808 0)
(1.09384 0.0402655 0)
(1.0944 0.0417885 0)
(0.830177 0.0227803 0)
(0.175622 0.000648229 0)
(0.154721 -0.000462727 0)
(0.958148 -0.0256964 0)
(1.10438 -0.0351273 0)
(1.08805 -0.0326848 0)
(1.06123 -0.0281831 0)
(1.04319 -0.0232233 0)
(1.03081 -0.0179218 0)
(1.02222 -0.0123812 0)
(1.01668 -0.00647424 0)
(1.01402 -2.22819e-05 0)
(1.01467 0.00643586 0)
(1.01845 0.0123052 0)
(1.02522 0.0176222 0)
(1.03536 0.0226332 0)
(1.0501 0.0274569 0)
(1.07203 0.0318981 0)
(1.10098 0.0357753 0)
(1.06966 0.0339808 0)
(0.742509 0.014456 0)
(0.153206 0.000484424 0)
(0.140032 -0.000334676 0)
(0.90112 -0.0193337 0)
(1.09678 -0.0302383 0)
(1.09618 -0.0293687 0)
(1.06892 -0.0255924 0)
(1.05009 -0.0215113 0)
(1.03715 -0.0168154 0)
(1.02817 -0.0115711 0)
(1.02223 -0.005855 0)
(1.01925 0.000495565 0)
(1.01987 0.00686384 0)
(1.02386 0.0125101 0)
(1.03088 0.0174948 0)
(1.04138 0.0219683 0)
(1.05675 0.0259111 0)
(1.07955 0.0294304 0)
(1.10329 0.0321491 0)
(1.03787 0.0281413 0)
(0.675696 0.0103092 0)
(0.1379 0.000360493 0)
(0.129288 -0.000253323 0)
(0.851218 -0.0149399 0)
(1.0844 -0.0261463 0)
(1.10185 -0.0265056 0)
(1.07573 -0.0231963 0)
(1.05639 -0.01955 0)
(1.04303 -0.0153592 0)
(1.03368 -0.0105055 0)
(1.02747 -0.00501705 0)
(1.02427 0.00114434 0)
(1.02478 0.00729624 0)
(1.02879 0.0126578 0)
(1.03596 0.0172202 0)
(1.04676 0.0210948 0)
(1.0625 0.0244391 0)
(1.08574 0.0274787 0)
(1.10253 0.0293026 0)
(1.00321 0.0235946 0)
(0.623668 0.00790495 0)
(0.126402 0.000284622 0)
(0.121094 -0.000194577 0)
(0.808683 -0.011758 0)
(1.06906 -0.0225608 0)
(1.10534 -0.0238896 0)
(1.08195 -0.0210358 0)
(1.06216 -0.0176207 0)
(1.04853 -0.0137202 0)
(1.03893 -0.00919622 0)
(1.03245 -0.00398981 0)
(1.02903 0.00192829 0)
(1.02939 0.00780383 0)
(1.03335 0.0128081 0)
(1.04058 0.016913 0)
(1.05148 0.0203191 0)
(1.06748 0.0232658 0)
(1.09111 0.0259923 0)
(1.09888 0.026912 0)
(0.968155 0.0200118 0)
(0.581937 0.0063347 0)
(0.117292 0.000232636 0)
(0.114736 -0.000150036 0)
(0.772795 -0.00937734 0)
(1.05215 -0.0194046 0)
(1.10765 -0.0214767 0)
(1.08778 -0.0190145 0)
(1.06758 -0.0157722 0)
(1.05369 -0.012049 0)
(1.04391 -0.00773317 0)
(1.03722 -0.00277477 0)
(1.03354 0.00287284 0)
(1.0337 0.00843348 0)
(1.03755 0.0130569 0)
(1.04472 0.0167633 0)
(1.05565 0.0197991 0)
(1.07189 0.0224121 0)
(1.09522 0.0247924 0)
(1.09247 0.0249211 0)
(0.934074 0.0172313 0)
(0.547502 0.00525515 0)
(0.109818 0.000196458 0)
(0.109764 -0.000114958 0)
(0.742628 -0.00753393 0)
(1.03474 -0.0166053 0)
(1.10897 -0.0192074 0)
(1.09329 -0.0170693 0)
(1.07281 -0.0139352 0)
(1.05864 -0.0103203 0)
(1.04868 -0.00614511 0)
(1.04177 -0.00137351 0)
(1.03784 0.00401174 0)
(1.03774 0.0092382 0)
(1.04138 0.0134921 0)
(1.04842 0.0168299 0)
(1.05935 0.0195233 0)
(1.07581 0.0218497 0)
(1.09807 0.0238659 0)
(1.08366 0.0232566 0)
(0.901577 0.0150953 0)
(0.518316 0.00449453 0)
(0.103492 0.000171153 0)
(0.105886 -8.61797e-05 0)
(0.717357 -0.00605135 0)
(1.01766 -0.0140958 0)
(1.10945 -0.0170226 0)
(1.0987 -0.0151795 0)
(1.07794 -0.0120736 0)
(1.06346 -0.00851099 0)
(1.05328 -0.00441755 0)
(1.04614 0.000224014 0)
(1.04191 0.00537835 0)
(1.04148 0.0102832 0)
(1.04485 0.0141945 0)
(1.05172 0.0171971 0)
(1.06264 0.019562 0)
(1.07931 0.0216158 0)
(1.09959 0.0232322 0)
(1.07285 0.0219189 0)
(0.870815 0.0134924 0)
(0.492929 0.00396275 0)
(0.0979684 0.000154522 0)
(0.102911 -6.12671e-05 0)
(0.696338 -0.0048096 0)
(1.00152 -0.0118052 0)
(1.1092 -0.0148775 0)
(1.10392 -0.0132594 0)
(1.08304 -0.0101441 0)
(1.06824 -0.00657542 0)
(1.0578 -0.00250592 0)
(1.05038 0.00204902 0)
(1.04578 0.00702262 0)
(1.04495 0.011644 0)
(1.04799 0.0152117 0)
(1.05465 0.0178615 0)
(1.06553 0.0199013 0)
(1.08236 0.021703 0)
(1.10014 0.0229067 0)
(1.06035 0.0209038 0)
(0.841665 0.012327 0)
(0.470265 0.00360116 0)
(0.0929902 0.000144518 0)
(0.100715 -3.83765e-05 0)
(0.679102 -0.00372116 0)
(0.986803 -0.00966546 0)
(1.10845 -0.0126829 0)
(1.10893 -0.0111963 0)
(1.08819 -0.0080428 0)
(1.07304 -0.00441801 0)
(1.06228 -0.000323603 0)
(1.0545 0.00418768 0)
(1.04945 0.00901413 0)
(1.04813 0.0133611 0)
(1.05076 0.0165971 0)
(1.05718 0.0189041 0)
(1.06801 0.0205994 0)
(1.08493 0.0221162 0)
(1.09971 0.0229747 0)
(1.04637 0.0202253 0)
(0.813853 0.0115279 0)
(0.449497 0.0033715 0)
(0.0883595 0.000139727 0)
(0.0992339 -1.59217e-05 0)
(0.66535 -0.00271743 0)
(0.973855 -0.00760045 0)
(1.1075 -0.0103878 0)
(1.11385 -0.00896793 0)
(1.09346 -0.00575807 0)
(1.07791 -0.00201722 0)
(1.06679 0.00217372 0)
(1.05857 0.00670297 0)
(1.05296 0.0114261 0)
(1.05104 0.0155175 0)
(1.0532 0.0184104 0)
(1.05932 0.0203617 0)
(1.07009 0.0217068 0)
(1.08704 0.0229475 0)
(1.09812 0.0233587 0)
(1.03101 0.0198582 0)
(0.787005 0.0110333 0)
(0.429957 0.00324636 0)
(0.0839159 0.000139177 0)
(0.0984526 7.97534e-06 0)
(0.654932 -0.00174183 0)
(0.962996 -0.00553313 0)
(1.10665 -0.00791169 0)
(1.11877 -0.00646824 0)
(1.09891 -0.00315614 0)
(1.08295 0.000764782 0)
(1.07138 0.00510035 0)
(1.06263 0.00970205 0)
(1.05633 0.0143601 0)
(1.0537 0.0182044 0)
(1.05527 0.0207465 0)
(1.06103 0.0223093 0)
(1.07169 0.0232514 0)
(1.08861 0.0241939 0)
(1.09531 0.0241179 0)
(1.01429 0.0198233 0)
(0.760733 0.0108107 0)
(0.411111 0.00321089 0)
(0.0795354 0.00014229 0)
(0.0983926 2.92559e-05 0)
(0.647821 -0.000746979 0)
(0.954535 -0.00339554 0)
(1.10627 -0.00519334 0)
(1.12389 -0.00361334 0)
(1.10465 -0.000127978 0)
(1.08823 0.00403301 0)
(1.07613 0.00857265 0)
(1.06672 0.0133044 0)
(1.0596 0.0179245 0)
(1.05609 0.0215102 0)
(1.05695 0.0236694 0)
(1.06228 0.0248163 0)
(1.07283 0.0253275 0)
(1.08947 0.0259063 0)
(1.09106 0.0252966 0)
(0.996161 0.0201538 0)
(0.734583 0.0108469 0)
(0.392468 0.00325879 0)
(0.0750981 0.000149012 0)
(0.0990866 6.81772e-05 0)
(0.644104 0.000279031 0)
(0.948791 -0.00110883 0)
(1.10671 -0.00214653 0)
(1.1294 -0.000334744 0)
(1.11078 0.00338022 0)
(1.09383 0.00785957 0)
(1.0811 0.0126962 0)
(1.07089 0.0176302 0)
(1.06275 0.0222598 0)
(1.05819 0.0255946 0)
(1.0582 0.0273457 0)
(1.06299 0.0280283 0)
(1.07341 0.0280843 0)
(1.08945 0.028222 0)
(1.08522 0.026948 0)
(0.976425 0.0208608 0)
(0.708072 0.0111277 0)
(0.373573 0.00338253 0)
(0.0704968 0.000158789 0)
(0.100744 9.47555e-05 0)
(0.644173 0.00144483 0)
(0.946113 0.00141119 0)
(1.10835 0.00134378 0)
(1.13545 0.00350747 0)
(1.1174 0.00757531 0)
(1.09988 0.012469 0)
(1.08637 0.0176783 0)
(1.07515 0.0228716 0)
(1.06577 0.0275387 0)
(1.05994 0.0306054 0)
(1.05896 0.0318671 0)
(1.06312 0.0320229 0)
(1.07334 0.0315828 0)
(1.08834 0.0312153 0)
(1.07763 0.0291126 0)
(0.954843 0.0219824 0)
(0.680687 0.0116543 0)
(0.353996 0.00357985 0)
(0.0656333 0.000171433 0)
(0.103422 0.000142035 0)
(0.648379 0.00287724 0)
(0.94701 0.00430517 0)
(1.11175 0.00538182 0)
(1.14229 0.00808313 0)
(1.12469 0.0126642 0)
(1.10647 0.0180656 0)
(1.09202 0.0237336 0)
(1.07959 0.0292533 0)
(1.0687 0.0339587 0)
(1.06132 0.0366954 0)
(1.05917 0.037398 0)
(1.06257 0.0369493 0)
(1.07254 0.0359338 0)
(1.08596 0.0349893 0)
(1.06798 0.0318912 0)
(0.931053 0.0235531 0)
(0.651874 0.0124285 0)
(0.33331 0.00384785 0)
(0.0604137 0.00018649 0)
(0.107404 0.00020318 0)
(0.657302 0.00456028 0)
(0.951922 0.00772783 0)
(1.11737 0.0101341 0)
(1.1502 0.0135322 0)
(1.13283 0.0187671 0)
(1.11377 0.0248218 0)
(1.09816 0.0310895 0)
(1.08421 0.0370133 0)
(1.07147 0.0417602 0)
(1.06226 0.044089 0)
(1.05874 0.044139 0)
(1.06123 0.0430024 0)
(1.07089 0.041314 0)
(1.08225 0.0397101 0)
(1.05592 0.0353858 0)
(0.904584 0.0256192 0)
(0.621023 0.0134595 0)
(0.311084 0.00418495 0)
(0.0547523 0.000203403 0)
(0.113014 0.000286057 0)
(0.671619 0.00665312 0)
(0.961542 0.0118765 0)
(1.12575 0.0158658 0)
(1.15946 0.0201867 0)
(1.14205 0.0262922 0)
(1.12197 0.0331683 0)
(1.10487 0.0401413 0)
(1.08903 0.0464989 0)
(1.07405 0.0512288 0)
(1.06266 0.0530119 0)
(1.05752 0.0522704 0)
(1.05895 0.0503363 0)
(1.06823 0.0478961 0)
(1.07701 0.0454992 0)
(1.04098 0.0397061 0)
(0.874864 0.0282311 0)
(0.587467 0.0147477 0)
(0.286894 0.00458333 0)
(0.0485787 0.000221171 0)
(0.120754 0.000402488 0)
(0.692282 0.00938336 0)
(0.976731 0.0170475 0)
(1.1376 0.0228952 0)
(1.17061 0.0284457 0)
(1.15267 0.0357258 0)
(1.13121 0.0435795 0)
(1.11219 0.0513461 0)
(1.09397 0.0581306 0)
(1.07626 0.0627001 0)
(1.06236 0.0637234 0)
(1.05533 0.0619772 0)
(1.05557 0.0591048 0)
(1.06443 0.0558185 0)
(1.06997 0.0524913 0)
(1.02263 0.0449506 0)
(0.841184 0.031411 0)
(0.550497 0.0162723 0)
(0.260349 0.00502459 0)
(0.0418492 0.000238088 0)
(0.13137 0.000574001 0)
(0.720635 0.0131189 0)
(0.998626 0.0237171 0)
(1.15368 0.0317588 0)
(1.18426 0.038832 0)
(1.16501 0.0476147 0)
(1.14166 0.0566466 0)
(1.12017 0.0652788 0)
(1.099 0.0723807 0)
(1.07804 0.0765482 0)
(1.06123 0.0765343 0)
(1.05207 0.073554 0)
(1.05099 0.0695433 0)
(1.05924 0.0652229 0)
(1.06071 0.0607481 0)
(1.00013 0.0511956 0)
(0.802759 0.0351583 0)
(0.509408 0.0179839 0)
(0.231166 0.00547452 0)
(0.0345738 0.000251084 0)
(0.146134 0.000849722 0)
(0.758679 0.0184786 0)
(1.02883 0.0326719 0)
(1.17485 0.0433957 0)
(1.20107 0.0524046 0)
(1.17942 0.063029 0)
(1.1534 0.0733694 0)
(1.12861 0.0827492 0)
(1.10373 0.0898367 0)
(1.07893 0.0931541 0)
(1.05886 0.0916644 0)
(1.04746 0.0871404 0)
(1.04502 0.0818247 0)
(1.05232 0.0762681 0)
(1.04858 0.0704897 0)
(0.972603 0.0584853 0)
(0.758688 0.0394384 0)
(0.46356 0.0197983 0)
(0.199252 0.00588239 0)
(0.0268465 0.000256198 0)
(0.167208 0.00132385 0)
(0.809607 0.0266144 0)
(1.06991 0.0454516 0)
(1.20225 0.0596547 0)
(1.22173 0.0713764 0)
(1.19598 0.0836793 0)
(1.16616 0.0951165 0)
(1.13712 0.104715 0)
(1.10782 0.111115 0)
(1.07871 0.112853 0)
(1.05511 0.109287 0)
(1.04132 0.102817 0)
(1.03746 0.0959877 0)
(1.0434 0.0893462 0)
(1.03288 0.0818437 0)
(0.938938 0.0667652 0)
(0.708076 0.044142 0)
(0.412606 0.0215879 0)
(0.164903 0.00618048 0)
(0.0188913 0.000248206 0)
(0.197958 0.00237662 0)
(0.879045 0.0402393 0)
(1.12538 0.0658687 0)
(1.23637 0.0840067 0)
(1.24606 0.0983335 0)
(1.21414 0.111777 0)
(1.17917 0.12337 0)
(1.1449 0.132106 0)
(1.11054 0.136762 0)
(1.07674 0.135966 0)
(1.04954 0.129624 0)
(1.03341 0.120796 0)
(1.02822 0.112187 0)
(1.03235 0.104348 0)
(1.0128 0.0946864 0)
(0.89782 0.0757857 0)
(0.650314 0.0489878 0)
(0.357141 0.023217 0)
(0.129359 0.00633395 0)
(0.0111932 0.000221128 0)
(0.239877 0.00857204 4.91708e-20)
(0.970987 0.067428 4.28728e-20)
(1.19298 0.100061 -1.49456e-20)
(1.2741 0.119995 0)
(1.27131 0.13681 -3.77371e-34)
(1.23178 0.149607 5.50675e-21)
(1.19087 0.159678 -9.86201e-21)
(1.15083 0.166216 0)
(1.111 0.168072 2.01051e-34)
(1.07218 0.163956 -1.20634e-20)
(1.04109 0.15436 0)
(1.02239 0.143007 -1.42503e-20)
(1.01573 0.132685 -4.19832e-20)
(1.01777 0.123871 -1.98248e-20)
(0.985759 0.112042 -5.95735e-21)
(0.844524 0.0879792 -3.53842e-21)
(0.579559 0.0550769 0)
(0.294823 0.0251999 2.4767e-21)
(0.093056 0.00686658 2.92456e-21)
(0.00404952 0.000280565 5.2662e-20)
(0.269271 0.0239292 3.66615e-20)
(1.04681 0.109924 5.24527e-22)
(1.24854 0.148851 4.02137e-21)
(1.30783 0.168909 0)
(1.2934 0.185546 -1.93001e-20)
(1.24685 0.196203 -2.18535e-20)
(1.20002 0.204012 -9.99076e-21)
(1.15404 0.208075 -3.53877e-20)
(1.10839 0.20711 0)
(1.06393 0.19975 5.1476e-20)
(1.02814 0.186957 5.09295e-20)
(1.00622 0.173039 1.51182e-20)
(0.997292 0.160712 5.49758e-20)
(0.993517 0.149753 7.71225e-20)
(0.944545 0.134352 0)
(0.774117 0.1032 1.08658e-19)
(0.49702 0.0626011 1.55936e-19)
(0.229275 0.027434 1.73228e-19)
(0.0579947 0.00680427 -1.98099e-19)
(-0.00274848 -0.000174007 -3.72375e-21)
(0.270399 0.0396334 0)
(1.0947 0.165061 6.62257e-21)
(1.28583 0.208893 0)
(1.33396 0.228461 -2.55838e-20)
(1.31061 0.242062 0)
(1.25817 0.248937 -4.31931e-20)
(1.20574 0.253086 2.04865e-20)
(1.1541 0.253608 -7.15044e-20)
(1.10287 0.249041 -1.56696e-21)
(1.05301 0.237955 2.67248e-20)
(1.01266 0.221799 1.12153e-19)
(0.987549 0.205343 -2.77801e-22)
(0.976118 0.191066 -3.9997e-20)
(0.96702 0.177837 -7.28454e-20)
(0.907103 0.158102 8.6214e-20)
(0.72505 0.11926 -1.52678e-19)
(0.451995 0.0708554 -2.01956e-20)
(0.201021 0.0305542 0)
(0.0449712 0.00686502 -4.48694e-25)
(-0.00528484 -0.000773501 0)
(0.264265 0.0532653 9.00165e-20)
(1.12059 0.223561 -4.34496e-20)
(1.30884 0.273517 -3.27567e-20)
(1.35117 0.293212 1.21916e-20)
(1.32157 0.302974 -2.04821e-20)
(1.26468 0.305422 9.07765e-20)
(1.20762 0.305236 4.2892e-20)
(1.15108 0.301626 0)
(1.09487 0.292997 -1.34605e-19)
(1.04003 0.277835 0)
(0.995403 0.258014 -5.90288e-20)
(0.967143 0.238778 -7.26758e-20)
(0.953099 0.222452 -4.36478e-20)
(0.939821 0.207092 -5.29972e-20)
(0.874772 0.183325 0)
(0.692585 0.13787 0)
(0.43097 0.0825239 -1.31675e-19)
(0.194536 0.03635 2.60687e-20)
(0.0439173 0.00798226 -1.52482e-20)
(-0.00588654 -0.00118869 -1.78456e-20)
(0.257023 0.0653652 -3.82767e-20)
(1.13212 0.28197 0)
(1.32155 0.339154 6.81418e-20)
(1.36044 0.359424 3.46559e-20)
(1.32639 0.365385 4.7257e-20)
(1.26621 0.363388 0)
(1.2055 0.358794 4.21903e-20)
(1.14493 0.350925 7.94732e-20)
(1.0844 0.338065 6.91446e-20)
(1.02506 0.318602 1.26262e-19)
(0.976412 0.29491 0)
(0.94518 0.272838 -1.57041e-19)
(0.928763 0.254581 -9.45119e-20)
(0.912265 0.237129 -5.58517e-20)
(0.845875 0.209631 3.42866e-19)
(0.670121 0.158852 4.07964e-20)
(0.423743 0.0976498 1.91667e-19)
(0.200008 0.0449007 -9.07554e-19)
(0.0506589 0.0110382 5.37567e-19)
(-0.00437875 -0.00112551 -6.47824e-19)
(0.250144 0.0763374 -2.11173e-20)
(1.13452 0.338468 7.0439e-21)
(1.32676 0.403877 -7.62119e-21)
(1.36333 0.425182 -3.59678e-20)
(1.32601 0.427552 -4.04356e-20)
(1.26334 0.421302 1.78937e-21)
(1.19977 0.412506 -4.57346e-20)
(1.13588 0.400493 8.24286e-20)
(1.07163 0.383444 -1.48976e-19)
(1.00825 0.359714 0)
(0.955951 0.332371 -7.12407e-20)
(0.921945 0.307769 -1.62103e-21)
(0.903187 0.287685 -1.03498e-19)
(0.8839 0.268078 0)
(0.817873 0.237166 -7.44183e-20)
(0.652165 0.182013 -1.76784e-19)
(0.422468 0.114996 4.72631e-19)
(0.209828 0.055973 -4.65115e-19)
(0.061126 0.0160883 6.60631e-19)
(-0.0015116 -0.000502617 -6.86416e-19)
(0.244442 0.0865274 -4.10335e-22)
(1.13129 0.392403 -3.1712e-21)
(1.32655 0.466691 -2.22155e-20)
(1.36123 0.489282 1.47618e-20)
(1.32147 0.488441 -2.04429e-20)
(1.25694 0.478248 0)
(1.19106 0.465544 -4.28274e-20)
(1.12437 0.449597 -8.64356e-20)
(1.05689 0.428526 -7.75529e-20)
(0.989963 0.400735 0)
(0.934419 0.369959 -7.4081e-20)
(0.897837 0.342824 -9.15989e-20)
(0.876672 0.320653 1.12371e-19)
(0.855189 0.299035 -6.82438e-20)
(0.790213 0.265354 -3.25364e-19)
(0.635166 0.206401 1.93743e-19)
(0.421563 0.13369 5.7876e-20)
(0.219765 0.0686085 0)
(0.0717959 0.0223951 -6.39976e-19)
(0.00162652 0.000490416 -2.34793e-20)
(0.240003 0.0962469 1.84323e-22)
(1.12468 0.443574 6.30145e-22)
(1.32241 0.52711 1.05744e-20)
(1.35537 0.551026 5.23477e-20)
(1.31371 0.547403 -7.60071e-20)
(1.24777 0.533657 8.77533e-20)
(1.18002 0.517359 9.22568e-20)
(1.11094 0.497727 -1.38171e-19)
(1.04062 0.47287 4.76947e-20)
(0.970556 0.441223 -3.11054e-19)
(0.912086 0.40694 -8.37084e-20)
(0.873109 0.376921 0)
(0.849798 0.352555 1.21902e-19)
(0.826743 0.329362 1.46095e-19)
(0.762952 0.293121 1.75086e-19)
(0.617285 0.230539 -2.10653e-19)
(0.418207 0.152871 -6.2415e-20)
(0.22655 0.0819723 7.33522e-20)
(0.080589 0.0292473 0)
(0.004502 0.00167752 -5.10012e-20)
(0.236714 0.105654 -2.46838e-20)
(1.11628 0.49208 8.81844e-21)
(1.31563 0.585323 -9.61925e-21)
(1.34673 0.610081 3.20465e-20)
(1.30351 0.604049 -3.45386e-20)
(1.23652 0.587127 -4.06104e-21)
(1.16722 0.56757 -1.00735e-19)
(1.09608 0.54454 -4.99741e-20)
(1.02326 0.516159 -1.34777e-19)
(0.950325 0.480816 2.82135e-22)
(0.889081 0.442852 -2.62284e-19)
(0.84792 0.40982 2.20847e-19)
(0.822942 0.383621 -1.33892e-19)
(0.798635 0.359042 1.6103e-19)
(0.735435 0.319832 0)
(0.598241 0.253212 -1.14339e-19)
(0.411768 0.171385 -1.82989e-22)
(0.2292 0.0947792 -3.19716e-19)
(0.0862422 0.0357218 -4.69902e-20)
(0.00667951 0.00283495 0)
(0.234439 0.114871 0)
(1.107 0.538128 1.29581e-20)
(1.30691 0.640777 -9.09698e-21)
(1.33609 0.666319 -2.95104e-20)
(1.29155 0.658164 -4.34601e-20)
(1.22374 0.63842 0)
(1.15316 0.615916 -4.6009e-20)
(1.08022 0.589798 -1.10174e-21)
(1.00515 0.558196 2.88767e-19)
(0.929499 0.519306 -4.27576e-20)
(0.865555 0.47768 -1.8932e-19)
(0.822439 0.441949 1.1489e-19)
(0.796197 0.414332 -2.1715e-21)
(0.770495 0.388043 1.71135e-19)
(0.70711 0.344939 1.05744e-19)
(0.577219 0.274275 -2.46958e-19)
(0.401899 0.188462 2.9255e-19)
(0.227197 0.105979 8.65504e-20)
(0.0880006 0.0410033 3.57164e-19)
(0.0079177 0.00373964 -9.54315e-19)
(0.233117 0.124034 -1.35405e-20)
(1.09748 0.581911 1.49698e-20)
(1.29708 0.693335 -7.40017e-21)
(1.32403 0.719711 2.33614e-20)
(1.27837 0.709631 0)
(1.20991 0.687381 -4.07552e-20)
(1.13825 0.662242 1.54224e-19)
(1.06374 0.633363 1.0958e-19)
(0.986592 0.598852 0)
(0.908308 0.556629 -6.14975e-19)
(0.841736 0.511618 5.11629e-19)
(0.796855 0.473647 0)
(0.769463 0.444561 1.5624e-19)
(0.74199 0.415525 -2.18452e-21)
(0.678013 0.367688 -3.37495e-19)
(0.5544 0.292934 1.32232e-19)
(0.388727 0.202951 0)
(0.22115 0.114673 4.66645e-19)
(0.0864003 0.0445248 0)
(0.00825231 0.00424908 -4.51073e-19)
(0.232567 0.133213 1.78465e-20)
(1.0882 0.623521 2.39665e-20)
(1.28631 0.743078 -6.15965e-21)
(1.31107 0.770235 0)
(1.26441 0.758423 -3.72515e-20)
(1.19543 0.733948 0)
(1.12286 0.706467 -1.52536e-19)
(1.04696 0.675165 -5.10724e-20)
(0.967871 0.638071 5.09808e-20)
(0.887007 0.592803 -3.04092e-19)
(0.817864 0.544831 5.28451e-20)
(0.771284 0.504842 0)
(0.742525 0.473642 -3.3341e-19)
(0.712825 0.440601 2.17444e-21)
(0.648282 0.38771 0)
(0.529929 0.309011 1.70551e-21)
(0.372379 0.214516 4.2601e-19)
(0.211304 0.1206 -4.02856e-19)
(0.0819814 0.0461324 1.18645e-19)
(0.00775218 0.00429552 0)
(0.232458 0.142271 0)
(1.07935 0.663093 3.18505e-20)
(1.27501 0.790159 1.59224e-20)
(1.29761 0.81792 -2.45236e-21)
(1.25002 0.804553 -1.27575e-20)
(1.18062 0.778107 -9.1372e-20)
(1.10728 0.748575 5.70245e-20)
(1.03013 0.715176 -6.00546e-20)
(0.949222 0.675817 2.27157e-19)
(0.865824 0.627871 -4.85552e-19)
(0.794137 0.577344 -3.6624e-21)
(0.745755 0.535187 -1.46083e-19)
(0.715221 0.500906 5.40589e-19)
(0.683073 0.462987 -2.53619e-21)
(0.618253 0.405203 -2.61298e-19)
(0.50429 0.322509 -4.66527e-19)
(0.35328 0.223 0)
(0.198157 0.123531 0)
(0.0752946 0.0460111 1.2803e-19)
(0.00678546 0.00404429 -7.51118e-20)
(0.232915 0.151333 2.85408e-20)
(1.07096 0.700448 -7.57164e-20)
(1.26348 0.834634 -1.73079e-20)
(1.28391 0.862851 0)
(1.23547 0.848069 -1.55671e-21)
(1.16573 0.81988 -8.40379e-20)
(1.09175 0.788577 1.37996e-19)
(1.0135 0.753393 2.36815e-19)
(0.930851 0.712089 2.95166e-19)
(0.844974 0.661861 -3.9644e-19)
(0.770708 0.609085 -4.38647e-19)
(0.720252 0.564334 3.9048e-19)
(0.687529 0.526026 0)
(0.652965 0.482826 -1.18563e-19)
(0.588143 0.420424 -2.82462e-19)
(0.477559 0.3333 -3.34768e-19)
(0.331728 0.228088 -3.96673e-19)
(0.182248 0.123432 1.17221e-19)
(0.0666168 0.0440488 -6.89516e-20)
(0.00542307 0.00345926 2.59183e-22)
(0.233493 0.160305 0)
(1.06319 0.736161 0)
(1.25192 0.876613 2.57176e-21)
(1.27018 0.905129 0)
(1.22098 0.889059 2.89631e-20)
(1.15098 0.85933 5.73067e-20)
(1.07648 0.82651 0)
(0.997226 0.789828 2.81678e-20)
(0.912937 0.746884 4.92273e-19)
(0.824641 0.694785 -9.10784e-19)
(0.747679 0.639953 0)
(0.69477 0.592098 -2.50976e-19)
(0.659492 0.549037 -3.02948e-21)
(0.622689 0.500434 -2.40927e-21)
(0.558035 0.43338 3.01555e-19)
(0.449955 0.341074 -2.87715e-22)
(0.307936 0.229638 -8.53236e-19)
(0.164232 0.120263 2.51942e-19)
(0.0569626 0.0405434 7.44415e-20)
(0.00387383 0.0026372 0)
(0.234101 0.169115 -1.22859e-19)
(1.05575 0.770176 -5.62904e-20)
(1.24039 0.916153 -6.46897e-20)
(1.25659 0.944857 3.60803e-20)
(1.20672 0.927597 3.56012e-20)
(1.13653 0.896523 0)
(1.0616 0.862425 8.34674e-20)
(0.981459 0.824503 -6.26039e-20)
(0.895623 0.780215 3.8679e-21)
(0.804976 0.72664 6.69824e-20)
(0.72514 0.669878 5.67037e-19)
(0.669327 0.618507 -8.80186e-20)
(0.63117 0.570251 -3.32466e-19)
(0.592267 0.516108 -1.37793e-19)
(0.527797 0.443868 1.63794e-19)
(0.421635 0.345516 -1.02071e-22)
(0.282912 0.227537 2.2966e-19)
(0.145291 0.114384 -5.41519e-19)
(0.047073 0.0359097 6.40005e-19)
(0.00230094 0.00168357 9.33282e-20)
(0.234574 0.177645 4.80009e-20)
(1.04867 0.802608 -3.26601e-20)
(1.22902 0.953353 6.25125e-21)
(1.24326 0.982159 3.13775e-20)
(1.19279 0.963795 -7.81135e-22)
(1.12249 0.931539 -9.98348e-20)
(1.04724 0.896375 2.43207e-20)
(0.966304 0.857433 -2.60875e-19)
(0.879031 0.812075 -5.41828e-19)
(0.786091 0.757396 -5.42127e-19)
(0.703187 0.69884 0)
(0.643995 0.643751 -3.85807e-19)
(0.602601 0.590118 4.78569e-19)
(0.561515 0.530086 0)
(0.497127 0.451606 -3.5042e-19)
(0.39278 0.346152 2.09065e-19)
(0.257583 0.221562 -2.46587e-19)
(0.126739 0.106221 -2.91112e-19)
(0.0377811 0.0306699 -5.15082e-19)
(0.000863049 0.000718863 -4.01555e-19)
(0.23536 0.186029 -5.55855e-20)
(1.0418 0.833433 3.49721e-20)
(1.21788 0.98829 7.74988e-20)
(1.23026 1.01712 5.09275e-20)
(1.17929 0.997746 5.52602e-21)
(1.10895 0.96447 -5.36506e-20)
(1.03347 0.928414 8.09649e-20)
(0.951841 0.888655 -2.67903e-19)
(0.863239 0.842483 -3.20555e-19)
(0.768087 0.787035 5.66725e-19)
(0.681918 0.726865 1.2434e-18)
(0.618886 0.668107 0)
(0.573803 0.609118 0)
(0.530096 0.542636 -1.58504e-19)
(0.465468 0.456275 0)
(0.363344 0.342059 4.49398e-19)
(0.233101 0.210957 5.30013e-19)
(0.110518 0.0959053 0)
(0.0303381 0.0253534 0)
(-0.000307003 -0.000117916 4.31152e-19)
(0.23578 0.193959 6.47006e-20)
(1.03517 0.862641 5.19167e-20)
(1.20701 1.02108 5.70559e-20)
(1.21764 1.04987 -5.52474e-20)
(1.16629 1.02956 -1.54698e-21)
(1.09597 0.995395 5.46863e-20)
(1.02035 0.9586 -1.10936e-19)
(0.938123 0.918192 -1.20563e-22)
(0.848318 0.87144 -5.01653e-21)
(0.751034 0.81553 -5.18335e-21)
(0.661461 0.754002 6.39947e-19)
(0.594156 0.69186 0)
(0.544834 0.627719 4.83259e-19)
(0.497633 0.554118 3.37693e-19)
(0.431911 0.457789 8.15961e-19)
(0.332639 0.332028 2.41684e-19)
(0.210559 0.193532 -2.85228e-19)
(0.100463 0.0812484 -1.67522e-19)
(0.0298331 0.019067 0)
(0.000483063 -0.000206483 4.62884e-19)
(0.23649 0.201888 -1.4896e-19)
(1.02876 0.890326 0)
(1.19641 1.05179 7.0512e-20)
(1.20544 1.08049 -4.92936e-20)
(1.15383 1.05934 1.31872e-20)
(1.08358 1.0244 -5.73974e-20)
(1.00791 0.98699 2.14941e-19)
(0.925184 0.946076 -2.19961e-20)
(0.834301 0.898952 0)
(0.734991 0.842841 -6.24361e-19)
(0.641944 0.780297 -1.38965e-18)
(0.57 0.715273 5.67689e-20)
(0.515837 0.646335 6.65091e-19)
(0.463868 0.56503 0)
(0.395273 0.456695 5.49891e-19)
(0.298431 0.315301 0)
(0.18828 0.164575 0)
(0.100382 0.049726 -1.81115e-19)
(0.0563343 0.000936443 0)
(0.0282758 0.0117976 1.23972e-19)
(0.236813 0.209206 -1.6911e-19)
(1.02253 0.916834 0)
(1.18609 1.08061 1.20142e-19)
(1.19361 1.10923 0)
(1.14187 1.08734 -1.16039e-20)
(1.07174 1.05178 0)
(0.996095 1.01389 1.05586e-20)
(0.912927 0.972647 3.66877e-20)
(0.821069 0.925384 4.00482e-20)
(0.719789 0.869355 -6.84281e-19)
(0.623207 0.806235 4.17028e-20)
(0.54624 0.739051 4.5625e-19)
(0.486464 0.665736 6.48219e-19)
(0.42795 0.576107 8.7373e-20)
(0.353625 0.454516 4.30408e-19)
(0.256047 0.293112 0)
(0.154914 0.121148 6.00992e-19)
(0.0818735 -0.00283408 -3.52031e-19)
(0.0434934 0.0455147 4.08143e-19)
(-0.0690696 0.434533 -4.81362e-19)
(0.237109 0.216316 1.41599e-19)
(1.01623 0.941938 2.14555e-19)
(1.17596 1.10787 0)
(1.18202 1.13652 5.14353e-21)
(1.13022 1.11414 4.10224e-20)
(1.06017 1.07822 6.29081e-20)
(0.984591 1.04011 7.40763e-20)
(0.900952 0.998843 0)
(0.8081 0.951828 2.656e-19)
(0.704772 0.896377 -3.57337e-20)
(0.604347 0.833293 0)
(0.521677 0.764911 0)
(0.454981 0.687552 5.79479e-19)
(0.387798 0.588326 -2.69691e-19)
(0.30384 0.453453 -4.35191e-19)
(0.20063 0.269695 0)
(0.0901101 0.119106 3.02496e-19)
(0.00515176 0.439649 -3.50255e-19)
(0.0341637 1.88607 -1.92159e-19)
(0.0636246 2.80948 -2.45485e-19)
(0.237216 0.222574 -1.08215e-19)
(1.01006 0.965822 -2.78742e-19)
(1.16603 1.13355 7.3386e-20)
(1.17065 1.16222 5.53656e-20)
(1.11892 1.13951 0)
(1.04894 1.10342 3.21923e-20)
(0.97359 1.06532 1.00293e-19)
(0.889442 1.02423 -1.77187e-20)
(0.795652 0.977765 3.95565e-20)
(0.690302 0.923283 6.51294e-19)
(0.585956 0.860852 7.00699e-19)
(0.497278 0.792545 5.09275e-19)
(0.42232 0.71181 5.81589e-19)
(0.345079 0.600569 -6.31521e-19)
(0.251716 0.456672 -6.55784e-19)
(0.133162 0.304298 0)
(0.0464298 0.829675 0)
(0.103084 2.54883 1.67239e-19)
(0.10409 3.19976 0)
(0.107188 3.38752 4.00074e-19)
(0.239889 0.228259 0)
(1.00461 0.988674 0)
(1.15607 1.15751 0)
(1.15927 1.18614 1.77355e-20)
(1.10765 1.16323 4.0157e-20)
(1.03782 1.12726 9.70571e-21)
(0.962986 1.08943 6.40154e-20)
(0.878354 1.04871 -1.72628e-20)
(0.78369 1.00306 3.31047e-19)
(0.676403 0.949937 -9.50657e-21)
(0.568186 0.888847 1.38272e-18)
(0.4734 0.821857 -5.85945e-20)
(0.388737 0.739532 7.03702e-20)
(0.302373 0.610426 9.11408e-20)
(0.189255 0.471598 -3.93775e-21)
(0.104039 0.962422 1.81816e-21)
(0.142587 2.71494 -8.76091e-19)
(0.151633 3.29163 -3.29946e-19)
(0.140066 3.42618 1.71242e-19)
(0.126826 3.44852 -1.90643e-19)
(0.15739 0.184484 6.54272e-20)
(0.993898 1.01326 0)
(1.14579 1.17997 -1.53416e-19)
(1.14844 1.20873 -1.55698e-19)
(1.09725 1.1861 1.11284e-19)
(1.02775 1.1504 -4.6427e-21)
(0.952748 1.11246 -6.52811e-20)
(0.86782 1.07238 1.91529e-19)
(0.772383 1.02787 -2.70721e-19)
(0.66335 0.976503 0)
(0.551441 0.9175 6.79047e-19)
(0.45065 0.85277 -4.15054e-19)
(0.354629 0.773777 0)
(0.254939 0.621065 8.47266e-20)
(0.153459 0.777022 2.02764e-19)
(0.157221 2.48443 -2.3861e-19)
(0.217058 3.32333 2.68308e-19)
(0.196182 3.44013 1.44779e-19)
(0.162902 3.46169 1.63369e-19)
(0.140726 3.47195 2.5997e-19)
(0.2834 0.267326 -1.18288e-19)
(0.978928 1.02344 0)
(1.12775 1.20545 1.69895e-19)
(1.13388 1.24075 1.78998e-19)
(1.08037 1.21934 -1.33852e-19)
(1.01034 1.18414 -2.00073e-20)
(0.934456 1.1478 5.91974e-20)
(0.849035 1.10888 1.49727e-20)
(0.75245 1.06652 2.5801e-19)
(0.640791 1.01853 5.61396e-19)
(0.523397 0.964388 3.8294e-20)
(0.412347 0.904951 3.68067e-19)
(0.294445 0.822677 6.55976e-20)
(0.215368 0.949128 -8.3138e-20)
(0.231799 2.33395 -1.89986e-19)
(0.293999 3.32661 1.82728e-19)
(0.276938 3.4704 -2.02222e-19)
(0.241213 3.49206 -1.17038e-19)
(0.203702 3.51961 -9.86694e-20)
(0.152033 3.51337 -1.16052e-20)
(0.271372 0.264227 0)
(0.97677 1.04636 5.1465e-20)
(1.11973 1.22905 -3.5799e-20)
(1.12369 1.26439 -2.21675e-20)
(1.06993 1.24266 -9.73142e-20)
(0.99998 1.20773 2.51453e-20)
(0.923788 1.17156 -2.96993e-20)
(0.838214 1.13338 1.33956e-20)
(0.741219 1.09245 -2.68494e-19)
(0.628369 1.0469 -1.40403e-20)
(0.508271 0.996691 -1.22602e-18)
(0.39287 0.942101 5.23935e-20)
(0.282397 0.890287 -6.19116e-20)
(0.256544 1.48399 -7.69354e-20)
(0.332102 3.09646 1.7863e-20)
(0.352842 3.4686 6.44844e-22)
(0.312136 3.52509 2.9209e-19)
(0.274532 3.55118 1.42517e-19)
(0.225616 3.57459 -3.471e-20)
(0.166407 3.57047 -5.40284e-20)
(0.254951 0.26259 1.32663e-19)
(0.973022 1.07196 3.53853e-19)
(1.11126 1.2548 -1.03163e-19)
(1.11293 1.28946 -8.38328e-20)
(1.05893 1.26736 0)
(0.989196 1.23251 6.81296e-20)
(0.91299 1.19657 -2.76595e-20)
(0.827539 1.15909 1.17078e-20)
(0.73044 1.11965 -2.98566e-20)
(0.616892 1.07673 -5.07269e-19)
(0.494912 1.03082 -5.65449e-19)
(0.377059 0.981413 -4.29725e-19)
(0.2813 1.02019 -4.68181e-19)
(0.325232 2.19059 4.83335e-19)
(0.418537 3.37678 4.04578e-19)
(0.396906 3.52694 0)
(0.351058 3.57163 0)
(0.312807 3.61241 -2.67667e-20)
(0.261458 3.6728 0)
(0.178532 3.64882 -2.79748e-20)
(0.244055 0.264436 -2.01374e-19)
(0.967282 1.09865 -3.03738e-19)
(1.10139 1.28178 0)
(1.10083 1.31533 6.16739e-21)
(1.0467 1.29268 -1.13956e-19)
(0.977298 1.25779 1.23704e-19)
(0.901411 1.2221 -8.68719e-21)
(0.816286 1.18523 6.66801e-21)
(0.719317 1.14719 -1.89509e-19)
(0.605453 1.10682 2.53957e-20)
(0.482447 1.06536 0)
(0.362086 1.02406 0)
(0.306001 1.27257 -4.27757e-19)
(0.408177 2.86947 1.74046e-19)
(0.49043 3.486 2.22235e-19)
(0.443027 3.55983 0)
(0.402542 3.62308 -8.15681e-21)