/*--------------------------------*- C++ -*----------------------------------*\
  =========                 |
  \\      /  F ield         | OpenFOAM: The Open Source CFD Toolbox
   \\    /   O peration     | Website:  https://openfoam.org
    \\  /    A nd           | Version:  9
     \\/     M anipulation  |
\*---------------------------------------------------------------------------*/
FoamFile
{
    format      ascii;
    class       volVectorField;
    location    "29";
    object      U;
}
// * * * * * * * * * * * * * * * * * * * * * * * * * * * * * * * * * * * * * //

dimensions      [0 1 -1 0 0 0 0];

internalField   nonuniform List<vector> 
8800
(
(0.980154 -0.0915212 0)
(1.00234 -0.0587234 0)
(0.99961 -0.0321241 0)
(0.999998 -0.0165154 0)
(1.00005 -0.00882809 0)
(1.00002 -0.00507461 0)
(1 -0.00297505 0)
(0.999996 -0.00168492 0)
(0.999996 -0.000806889 0)
(1.00005 -0.000122578 0)
(1 0.00056664 0)
(1.00001 0.0013241 0)
(1.00001 0.00236083 0)
(1.00002 0.00397486 0)
(1.00004 0.00672538 0)
(1.00005 0.0120334 0)
(0.999883 0.0230859 0)
(0.999075 0.0431528 0)
(1.00722 0.079028 0)
(0.775024 0.0478396 0)
(0.358978 -0.0147489 0)
(1.04649 -0.0724925 0)
(1.08849 -0.0660295 0)
(1.04946 -0.0509214 0)
(1.02553 -0.0376957 0)
(1.01267 -0.0258779 0)
(1.00648 -0.0166853 0)
(1.00356 -0.0102354 0)
(1.00214 -0.0056541 0)
(1.0015 -0.00210096 0)
(1.00138 0.00109146 0)
(1.00174 0.00439265 0)
(1.00271 0.00828451 0)
(1.00473 0.0136057 0)
(1.00897 0.0212954 0)
(1.01798 0.0318052 0)
(1.03589 0.0446011 0)
(1.06751 0.0580657 0)
(1.09474 0.0699571 0)
(0.845706 0.0554964 0)
(0.217763 -0.00138094 0)
(1.07568 -0.0506609 0)
(1.09943 -0.0489491 0)
(1.06438 -0.0400373 0)
(1.03982 -0.0325804 0)
(1.02368 -0.0253737 0)
(1.0139 -0.0181809 0)
(1.00843 -0.0116055 0)
(1.0056 -0.00590381 0)
(1.00446 -0.000670473 0)
(1.00479 0.00439884 0)
(1.00665 0.00968134 0)
(1.01057 0.0156796 0)
(1.01789 0.0224754 0)
(1.03052 0.0296004 0)
(1.05058 0.0367064 0)
(1.08019 0.0445037 0)
(1.10581 0.0518504 0)
(0.943459 0.0409666 0)
(0.217311 0.00139937 0)
(0.176616 -0.000628415 0)
(1.01938 -0.035462 0)
(1.1057 -0.0414085 0)
(1.07793 -0.0363934 0)
(1.05233 -0.0303446 0)
(1.03506 -0.024472 0)
(1.02321 -0.0187366 0)
(1.01542 -0.0128338 0)
(1.01085 -0.00682504 0)
(1.00886 -0.00065288 0)
(1.00943 0.00546523 0)
(1.01254 0.0113645 0)
(1.0185 0.0171379 0)
(1.0281 0.0227316 0)
(1.04233 0.0283116 0)
(1.0632 0.0341304 0)
(1.09406 0.0400561 0)
(1.0947 0.041631 0)
(0.830645 0.0227105 0)
(0.175851 0.000643261 0)
(0.15471 -0.00046238 0)
(0.958155 -0.0256776 0)
(1.10439 -0.0351077 0)
(1.08803 -0.032663 0)
(1.0611 -0.0281586 0)
(1.04297 -0.0232208 0)
(1.03058 -0.0179933 0)
(1.02202 -0.0125484 0)
(1.01652 -0.00674014 0)
(1.01392 -0.000398975 0)
(1.01462 0.00596386 0)
(1.01847 0.0118007 0)
(1.02526 0.0171459 0)
(1.03541 0.0221975 0)
(1.05023 0.0270573 0)
(1.07224 0.0315353 0)
(1.10133 0.0354666 0)
(1.0702 0.033749 0)
(0.743372 0.014356 0)
(0.153566 0.000479139 0)
(0.140047 -0.000333298 0)
(0.901191 -0.0192777 0)
(1.09673 -0.030153 0)
(1.09606 -0.0292952 0)
(1.0687 -0.0255583 0)
(1.04983 -0.021529 0)
(1.03687 -0.0169349 0)
(1.0279 -0.0118102 0)
(1.02199 -0.00622011 0)
(1.01906 1.54587e-06 0)
(1.01977 0.00626851 0)
(1.02388 0.0118588 0)
(1.03097 0.0168577 0)
(1.04151 0.0213794 0)
(1.05694 0.0253625 0)
(1.07978 0.0289005 0)
(1.10372 0.031658 0)
(1.0388 0.0277826 0)
(0.677154 0.0101641 0)
(0.138441 0.000353307 0)
(0.129355 -0.000251997 0)
(0.85146 -0.0148348 0)
(1.0844 -0.0259833 0)
(1.1017 -0.0263142 0)
(1.07542 -0.0229896 0)
(1.05598 -0.0193999 0)
(1.04258 -0.015394 0)
(1.03324 -0.0107457 0)
(1.02706 -0.0054327 0)
(1.02394 0.000538288 0)
(1.02457 0.00652053 0)
(1.02871 0.0117775 0)
(1.03598 0.0163026 0)
(1.04685 0.0201616 0)
(1.06272 0.0235349 0)
(1.08607 0.0266454 0)
(1.10321 0.0285798 0)
(1.00479 0.0230886 0)
(0.625958 0.00770708 0)
(0.127187 0.000276432 0)
(0.121253 -0.000192075 0)
(0.809274 -0.0115732 0)
(1.06909 -0.0222652 0)
(1.1051 -0.023616 0)
(1.08152 -0.0208414 0)
(1.06161 -0.0175238 0)
(1.04792 -0.0137913 0)
(1.0383 -0.00945572 0)
(1.03185 -0.00447176 0)
(1.02851 0.0011729 0)
(1.02903 0.00679883 0)
(1.03318 0.0116388 0)
(1.04057 0.0157015 0)
(1.0516 0.0191543 0)
(1.06778 0.022168 0)
(1.09152 0.0249175 0)
(1.09989 0.0259007 0)
(0.970695 0.0192896 0)
(0.585411 0.00606325 0)
(0.118404 0.000221796 0)
(0.115042 -0.000146252 0)
(0.774053 -0.0090794 0)
(1.05239 -0.0188807 0)
(1.10721 -0.0208936 0)
(1.08706 -0.0184926 0)
(1.06682 -0.015409 0)
(1.0529 -0.0119617 0)
(1.04306 -0.0079557 0)
(1.03635 -0.00334903 0)
(1.03278 0.00194267 0)
(1.03314 0.0071881 0)
(1.03728 0.0115451 0)
(1.04469 0.0151003 0)
(1.05577 0.0181021 0)
(1.07218 0.0207255 0)
(1.09564 0.0231509 0)
(1.09399 0.0234272 0)
(0.938118 0.0162146 0)
(0.552637 0.00488722 0)
(0.111363 0.000182832 0)
(0.11029 -0.000109886 0)
(0.744954 -0.00709478 0)
(1.03546 -0.0158195 0)
(1.10848 -0.018326 0)
(1.09233 -0.0162345 0)
(1.07169 -0.0133113 0)
(1.05747 -0.0100946 0)
(1.04749 -0.00632486 0)
(1.04066 -0.00199458 0)
(1.03689 0.00288655 0)
(1.03703 0.00762658 0)
(1.04095 0.0115319 0)
(1.04822 0.0146688 0)
(1.05934 0.0172263 0)
(1.07611 0.019508 0)
(1.09874 0.0216154 0)
(1.0861 0.0212115 0)
(0.907788 0.0137166 0)
(0.525715 0.004011 0)
(0.105601 0.000154591 0)
(0.106715 -7.9324e-05 0)
(0.72133 -0.0054245 0)
(1.01913 -0.0129189 0)
(1.10875 -0.0157268 0)
(1.09726 -0.0140804 0)
(1.07633 -0.0113622 0)
(1.06181 -0.00824674 0)
(1.05161 -0.00459314 0)
(1.04453 -0.000507514 0)
(1.04046 0.00400008 0)
(1.04036 0.00829174 0)
(1.0441 0.0117244 0)
(1.05128 0.0144377 0)
(1.06245 0.016684 0)
(1.07948 0.0186429 0)
(1.10044 0.0202449 0)
(1.07652 0.0191257 0)
(0.88008 0.0116369 0)
(0.50337 0.00333591 0)
(0.100789 0.000134965 0)
(0.104159 -5.11916e-05 0)
(0.702703 -0.00394543 0)
(1.00425 -0.0101162 0)
(1.1082 -0.0129163 0)
(1.10168 -0.0115271 0)
(1.08076 -0.00890261 0)
(1.06594 -0.00594939 0)
(1.05544 -0.00257699 0)
(1.04807 0.00119888 0)
(1.04373 0.00535695 0)
(1.04325 0.00922004 0)
(1.04673 0.0121354 0)
(1.05381 0.0143154 0)
(1.06501 0.0160449 0)
(1.08213 0.0175634 0)
(1.10092 0.0187567 0)
(1.06578 0.0170807 0)
(0.855181 0.00987041 0)
(0.484721 0.00279445 0)
(0.0967143 0.000119871 0)
(0.102517 -2.71247e-05 0)
(0.688723 -0.00259418 0)
(0.991466 -0.00741046 0)
(1.10738 -0.00999039 0)
(1.10586 -0.00872557 0)
(1.08497 -0.0062665 0)
(1.06983 -0.00351055 0)
(1.05914 -0.000321642 0)
(1.0515 0.00323608 0)
(1.04674 0.00702827 0)
(1.04586 0.0103793 0)
(1.04898 0.0127665 0)
(1.05577 0.0143579 0)
(1.06694 0.0155115 0)
(1.08432 0.0165492 0)
(1.10073 0.017378 0)
(1.0545 0.015222 0)
(0.833078 0.00837633 0)
(0.469131 0.0023711 0)
(0.0932046 0.000112146 0)
(0.101724 -3.0534e-07 0)
(0.679188 -0.00130185 0)
(0.981026 -0.00472494 0)
(1.10629 -0.00706425 0)
(1.1096 -0.00616246 0)
(1.08893 -0.00391564 0)
(1.07351 -0.00114042 0)
(1.0626 0.00205064 0)
(1.05469 0.00550871 0)
(1.04949 0.00905152 0)
(1.04807 0.0119851 0)
(1.05067 0.0139042 0)
(1.05711 0.0150658 0)
(1.06808 0.0157707 0)
(1.08541 0.016382 0)
(1.0993 0.0164722 0)
(1.04263 0.0135663 0)
(0.813629 0.00710203 0)
(0.456098 0.00202752 0)
(0.0901117 0.000107659 0)
(0.101846 3.91747e-05 0)
(0.674096 -1.8725e-05 0)
(0.973373 -0.00195787 0)
(1.10493 -0.00371484 0)
(1.11267 -0.00296438 0)
(1.09276 -0.000885193 0)
(1.0772 0.00189124 0)
(1.06595 0.00504001 0)
(1.05753 0.00832631 0)
(1.05169 0.0115557 0)
(1.04961 0.0140121 0)
(1.05171 0.0152542 0)
(1.05781 0.0157583 0)
(1.06855 0.0159951 0)
(1.08553 0.0158362 0)
(1.09622 0.015294 0)
(1.03039 0.0119557 0)
(0.796715 0.00602723 0)
(0.445242 0.00174663 0)
(0.0873921 9.75215e-05 0)
(0.102931 6.3147e-05 0)
(0.67318 0.00110142 0)
(0.96891 0.000476344 0)
(1.10434 -0.000484579 0)
(1.11576 0.000459582 0)
(1.09657 0.0025517 0)
(1.08088 0.00529563 0)
(1.06935 0.00837886 0)
(1.06052 0.0115881 0)
(1.05405 0.0146039 0)
(1.05109 0.016615 0)
(1.05239 0.0173552 0)
(1.05788 0.0172214 0)
(1.06825 0.0166327 0)
(1.08471 0.0160795 0)
(1.09222 0.0149054 0)
(1.01831 0.0111491 0)
(0.781772 0.00555769 0)
(0.435735 0.00167788 0)
(0.0849308 9.43027e-05 0)
(0.104794 9.32701e-05 0)
(0.675454 0.00196264 0)
(0.967477 0.00255716 0)
(1.10484 0.00233045 0)
(1.11914 0.0035083 0)
(1.10039 0.00577908 0)
(1.0844 0.00870091 0)
(1.07249 0.0119662 0)
(1.06306 0.0153544 0)
(1.05569 0.0183583 0)
(1.05176 0.0200648 0)
(1.05216 0.0203124 0)
(1.05691 0.019593 0)
(1.0668 0.0184361 0)
(1.08294 0.0172447 0)
(1.08709 0.0154619 0)
(1.00592 0.0111707 0)
(0.767759 0.00568731 0)
(0.426366 0.00181307 0)
(0.0824132 0.000100946 0)
(0.107405 0.000123616 0)
(0.680863 0.00280917 0)
(0.968941 0.00447903 0)
(1.10632 0.00507595 0)
(1.12292 0.00641011 0)
(1.10464 0.00894901 0)
(1.0885 0.0123495 0)
(1.07626 0.0161393 0)
(1.06614 0.0199155 0)
(1.05763 0.0230113 0)
(1.05242 0.0244513 0)
(1.05165 0.0242152 0)
(1.0554 0.022946 0)
(1.06461 0.0212779 0)
(1.08008 0.0194466 0)
(1.08068 0.0168722 0)
(0.992975 0.0120067 0)
(0.753661 0.0063816 0)
(0.416073 0.00211611 0)
(0.079562 0.000119096 0)
(0.110835 0.000162052 0)
(0.689177 0.00375071 0)
(0.973271 0.00649353 0)
(1.10923 0.00822729 0)
(1.12712 0.010071 0)
(1.10958 0.0131681 0)
(1.09331 0.0172501 0)
(1.08041 0.0216259 0)
(1.06921 0.0257086 0)
(1.05925 0.0287828 0)
(1.05248 0.0297884 0)
(1.0504 0.0288837 0)
(1.05315 0.0269418 0)
(1.06159 0.0246434 0)
(1.07596 0.0221552 0)
(1.07285 0.0188797 0)
(0.979323 0.0135701 0)
(0.738293 0.00747109 0)
(0.404087 0.00251363 0)
(0.076183 0.000142403 0)
(0.115283 0.000212803 0)
(0.700593 0.00495271 0)
(0.981122 0.00886067 0)
(1.11476 0.0119006 0)
(1.1328 0.0148767 0)
(1.11562 0.0189765 0)
(1.09892 0.0238217 0)
(1.08502 0.0287288 0)
(1.07238 0.0330393 0)
(1.06065 0.0359153 0)
(1.05199 0.0362322 0)
(1.04844 0.0344126 0)
(1.05005 0.0316698 0)
(1.05756 0.0286069 0)
(1.07068 0.0254431 0)
(1.06411 0.0216289 0)
(0.964687 0.015859 0)
(0.720639 0.00883303 0)
(0.389953 0.002976 0)
(0.072152 0.000170811 0)
(0.1211 0.000285886 0)
(0.715717 0.00660724 0)
(0.992336 0.011831 0)
(1.12335 0.0160608 0)
(1.14086 0.0202785 0)
(1.12315 0.0256254 0)
(1.10544 0.0314607 0)
(1.09007 0.0370626 0)
(1.07561 0.0418292 0)
(1.06167 0.0446929 0)
(1.05074 0.0444145 0)
(1.04542 0.0415965 0)
(1.04594 0.0376802 0)
(1.05265 0.0339173 0)
(1.06448 0.0302024 0)
(1.0543 0.0258666 0)
(0.947574 0.0188706 0)
(0.699879 0.010326 0)
(0.373492 0.00347505 0)
(0.0674138 0.000198422 0)
(0.128781 0.000388568 0)
(0.735577 0.00888788 0)
(1.00694 0.0157509 0)
(1.13465 0.0209376 0)
(1.15122 0.0261502 0)
(1.1325 0.0327672 0)
(1.11319 0.039799 0)
(1.09595 0.0465186 0)
(1.07923 0.0521883 0)
(1.06258 0.0555023 0)
(1.04896 0.0551022 0)
(1.04147 0.0517264 0)
(1.04043 0.0469676 0)
(1.04653 0.0419456 0)
(1.05718 0.0373379 0)
(1.04193 0.0314417 0)
(0.926205 0.0222418 0)
(0.675691 0.0120148 0)
(0.354425 0.00406988 0)
(0.0618917 0.000230754 0)
(0.139089 0.000551073 0)
(0.761809 0.0122288 0)
(1.02576 0.0213712 0)
(1.14815 0.0276534 0)
(1.1635 0.0336636 0)
(1.14366 0.041352 0)
(1.12257 0.0497309 0)
(1.1031 0.057957 0)
(1.0836 0.0648136 0)
(1.0637 0.0687649 0)
(1.04699 0.0683384 0)
(1.03699 0.0645317 0)
(1.03391 0.0591193 0)
(1.03853 0.0531369 0)
(1.04688 0.0467136 0)
(1.02426 0.0377995 0)
(0.899941 0.0258715 0)
(0.647938 0.0140349 0)
(0.332276 0.00476792 0)
(0.0554997 0.000263388 0)
(0.153301 0.000813919 0)
(0.796658 0.0172106 0)
(1.05094 0.0294567 0)
(1.16428 0.0374714 0)
(1.17746 0.0445013 0)
(1.15661 0.0534589 0)
(1.13386 0.0634593 0)
(1.11164 0.073144 0)
(1.08862 0.080865 0)
(1.06484 0.0849082 0)
(1.04462 0.0838316 0)
(1.03179 0.0790264 0)
(1.02622 0.0723984 0)
(1.02818 0.0648354 0)
(1.03189 0.0557609 0)
(1.0007 0.043995 0)
(0.869675 0.0300066 0)
(0.616281 0.0165188 0)
(0.306467 0.00557084 0)
(0.0481521 0.000295052 0)
(0.173618 0.00128093 0)
(0.843438 0.0250375 0)
(1.08548 0.0414783 0)
(1.18467 0.052277 0)
(1.19378 0.0614098 0)
(1.17184 0.0721467 0)
(1.14682 0.0835568 0)
(1.12095 0.0938924 0)
(1.09362 0.101407 0)
(1.06532 0.104309 0)
(1.04112 0.101393 0)
(1.02508 0.0945323 0)
(1.01652 0.0857917 0)
(1.01455 0.0759312 0)
(1.01201 0.064435 0)
(0.973062 0.0506973 0)
(0.836036 0.035188 0)
(0.579811 0.0195758 0)
(0.276547 0.00646819 0)
(0.0398896 0.000320071 0)
(0.203457 0.00234123 0)
(0.908025 0.0385979 0)
(1.13262 0.0612727 0)
(1.21139 0.075417 0)
(1.21377 0.0878329 0)
(1.18895 0.100104 0)
(1.16029 0.111831 0)
(1.12972 0.121338 0)
(1.09737 0.127057 0)
(1.06408 0.127229 0)
(1.03556 0.121071 0)
(1.01596 0.11112 0)
(1.00399 0.0995997 0)
(0.997539 0.0872279 0)
(0.988885 0.0739338 0)
(0.942904 0.0590699 0)
(0.798332 0.041811 0)
(0.537558 0.0232721 0)
(0.242721 0.00749807 0)
(0.030986 0.000337009 0)
(0.244557 0.00868342 1.49698e-19)
(0.994049 0.0659652 1.28806e-19)
(1.19037 0.0946825 -4.38646e-20)
(1.24391 0.110886 0)
(1.23616 0.126568 -9.94488e-34)
(1.20615 0.138803 1.4219e-20)
(1.17247 0.149175 -2.37489e-20)
(1.13646 0.156327 0)
(1.09862 0.158889 4.47012e-34)
(1.05988 0.155164 -2.55828e-20)
(1.0265 0.144883 0)
(1.00277 0.131332 -2.86811e-20)
(0.986724 0.11684 -8.34737e-20)
(0.975472 0.102314 -3.90537e-20)
(0.961257 0.0881729 -1.15721e-20)
(0.907693 0.0728407 -6.82323e-21)
(0.751667 0.0525915 0)
(0.485261 0.0293062 4.76333e-21)
(0.205369 0.0100974 5.62904e-21)
(0.0229042 0.000835955 1.01605e-19)
(0.272272 0.0244225 1.35426e-19)
(1.06463 0.108944 5.06887e-22)
(1.23813 0.142651 1.28795e-20)
(1.27494 0.160472 0)
(1.25692 0.175464 -5.42057e-20)
(1.22105 0.186405 -5.92067e-20)
(1.18183 0.194767 -2.48801e-20)
(1.14004 0.199386 -8.26e-20)
(1.09623 0.198781 0)
(1.0512 0.191178 1.09586e-19)
(1.01173 0.176871 1.05494e-19)
(0.98251 0.159873 3.06732e-20)
(0.961246 0.142717 1.08647e-19)
(0.94463 0.126249 1.4962e-19)
(0.923765 0.110723 0)
(0.862858 0.0941022 2.08125e-19)
(0.69731 0.0694945 2.98186e-19)
(0.432889 0.0401379 3.30657e-19)
(0.174058 0.0152005 -3.78265e-19)
(0.0166698 0.00145638 -7.1289e-21)
(0.271781 0.0398143 0)
(1.10845 0.164994 2.97446e-20)
(1.2716 0.202268 0)
(1.29918 0.219918 -8.74819e-20)
(1.27336 0.231909 0)
(1.2321 0.23981 -1.23232e-19)
(1.18747 0.24488 5.23748e-20)
(1.14011 0.246001 -1.72636e-19)
(1.09054 0.241642 -1.57339e-21)
(1.0395 0.229985 5.78622e-20)
(0.99431 0.211885 2.29195e-19)
(0.960162 0.192023 -3.11299e-22)
(0.934569 0.173018 -7.83594e-20)
(0.914023 0.155524 -1.39634e-19)
(0.889567 0.139246 1.64308e-19)
(0.828065 0.120711 -2.90337e-19)
(0.66707 0.0911429 -3.81237e-20)
(0.417314 0.0555141 0)
(0.17557 0.0230823 3.09602e-23)
(0.0185491 0.00260585 0)
(0.264761 0.0533527 5.42353e-19)
(1.13133 0.224165 -2.41532e-19)
(1.29286 0.266756 -1.55391e-19)
(1.31517 0.283926 4.5379e-20)
(1.28391 0.292389 -7.4054e-20)
(1.23836 0.296562 2.62084e-19)
(1.18915 0.297778 1.11185e-19)
(1.13691 0.294949 0)
(1.0822 0.286522 -3.0516e-19)
(1.02572 0.270726 0)
(0.975413 0.249052 -1.21699e-19)
(0.937067 0.226679 -1.44105e-19)
(0.908097 0.206113 -8.47641e-20)
(0.884872 0.187722 -1.00705e-19)
(0.858672 0.170553 0)
(0.799019 0.150503 0)
(0.651107 0.117507 -2.48203e-19)
(0.420672 0.0758935 4.88111e-20)
(0.188893 0.0342671 -2.8827e-20)
(0.0236429 0.00457743 -3.36991e-20)
(0.257217 0.0654637 -3.29134e-19)
(1.14069 0.283091 0)
(1.30485 0.332153 3.75139e-19)
(1.32376 0.349091 1.41258e-19)
(1.28862 0.354124 1.61682e-19)
(1.23978 0.354519 0)
(1.18689 0.351819 1.15296e-19)
(1.13058 0.344978 1.95348e-19)
(1.07144 0.332472 1.60392e-19)
(1.01028 0.312559 2.68989e-19)
(0.955607 0.287399 0)
(0.913774 0.262646 -3.09875e-19)
(0.88216 0.240583 -1.82442e-19)
(0.856908 0.221346 -1.06797e-19)
(0.829879 0.203568 6.40668e-19)
(0.773879 0.182304 7.59897e-20)
(0.640082 0.146424 3.57421e-19)
(0.42828 0.0985109 -1.68888e-18)
(0.203376 0.0474273 1.00251e-18)
(0.028866 0.00708269 -1.20831e-18)
(0.250364 0.0764576 -2.98202e-19)
(1.14156 0.339906 6.39486e-20)
(1.30981 0.396736 -5.46812e-20)
(1.32645 0.41364 -1.88548e-19)
(1.28842 0.415457 -1.63196e-19)
(1.237 0.412227 1.71782e-21)
(1.18112 0.405783 -1.23926e-19)
(1.12143 0.395075 2.06371e-19)
(1.05856 0.378605 -3.44144e-19)
(0.993356 0.354684 0)
(0.935041 0.326068 -1.43015e-19)
(0.890443 0.298942 -1.57603e-21)
(0.856766 0.275379 -1.97415e-19)
(0.830078 0.255244 0)
(0.802773 0.236919 -1.37925e-19)
(0.75032 0.214607 -3.26596e-19)
(0.629289 0.176362 8.71344e-19)
(0.433076 0.122071 -8.57628e-19)
(0.214015 0.061136 1.21838e-18)
(0.0330363 0.00976572 -1.26597e-18)
(0.244814 0.0867031 -4.09553e-22)
(1.13722 0.394018 -6.41787e-20)
(1.30984 0.459836 -2.23771e-19)
(1.32455 0.476516 9.65169e-20)
(1.28432 0.475411 -8.6071e-20)
(1.23082 0.468817 0)
(1.17249 0.458871 -1.26523e-19)
(1.10996 0.444518 -2.1894e-19)
(1.04389 0.424272 -1.81888e-19)
(0.975213 0.396466 0)
(0.913777 0.364409 -1.50648e-19)
(0.866964 0.33479 -1.78753e-19)
(0.8318 0.309635 2.12546e-19)
(0.804222 0.288497 -1.263e-19)
(0.777033 0.269461 -5.9569e-19)
(0.727866 0.246061 3.53552e-19)
(0.616771 0.205722 1.05531e-19)
(0.432226 0.144805 0)
(0.218096 0.0737894 -1.16555e-18)
(0.035242 0.0121339 -4.27208e-20)
(0.240563 0.0965072 -3.9538e-20)
(1.1298 0.445287 6.59655e-20)
(1.30599 0.520344 1.18367e-19)
(1.31914 0.53704 3.14141e-19)
(1.2772 0.533381 -3.56981e-19)
(1.22203 0.523752 3.12481e-19)
(1.16166 0.510579 2.71119e-19)
(1.0967 0.492838 -3.5063e-19)
(1.02783 0.469037 1.03431e-19)
(0.956082 0.437471 -6.59546e-19)
(0.891913 0.401967 -1.65529e-19)
(0.843252 0.369713 0)
(0.807031 0.34268 2.28731e-19)
(0.778971 0.320308 2.69632e-19)
(0.752198 0.300311 3.19156e-19)
(0.705789 0.275757 -3.8057e-19)
(0.60192 0.2327 -1.12436e-19)
(0.425796 0.164702 1.32482e-19)
(0.216534 0.0840667 0)
(0.0355663 0.0138913 -9.18505e-20)
(0.23745 0.106009 4.00343e-19)
(1.1208 0.493818 -2.7088e-19)
(1.29939 0.578028 -1.24812e-19)
(1.31117 0.594911 2.18654e-19)
(1.2678 0.589002 -1.84904e-19)
(1.21127 0.576657 -3.97927e-21)
(1.14918 0.560575 -2.91818e-19)
(1.08212 0.539735 -1.2566e-19)
(1.01076 0.512617 -3.13554e-19)
(0.936209 0.477453 2.19078e-22)
(0.869578 0.438478 -5.24197e-19)
(0.819287 0.403418 4.19324e-19)
(0.782237 0.374258 -2.47664e-19)
(0.75396 0.350289 2.92549e-19)
(0.727676 0.328979 0)
(0.683473 0.302709 -2.04504e-19)
(0.584771 0.25643 -9.48574e-22)
(0.41457 0.181278 -5.70828e-19)
(0.210592 0.0917251 -8.41444e-20)
(0.0345309 0.014986 0)
(0.235309 0.115317 0)
(1.11105 0.539809 -2.86267e-19)
(1.29087 0.632796 -2.55702e-19)
(1.30132 0.649999 -2.29053e-19)
(1.25675 0.642102 -2.0385e-19)
(1.19908 0.627339 0)
(1.13555 0.608646 -1.48276e-19)
(1.06664 0.585005 -1.17832e-21)
(0.993014 0.554847 6.70634e-19)
(0.915857 0.516275 -9.24724e-20)
(0.846856 0.473838 -3.75894e-19)
(0.795087 0.435801 2.21035e-19)
(0.757293 0.404221 -2.00364e-21)
(0.728882 0.378371 3.11671e-19)
(0.703055 0.355443 1.87587e-19)
(0.660447 0.327031 -4.39727e-19)
(0.565239 0.276705 5.20534e-19)
(0.399249 0.194445 1.53632e-19)
(0.20081 0.0967736 6.33377e-19)
(0.032268 0.015364 -1.69708e-18)
(0.234064 0.124549 8.38167e-20)
(1.10113 0.583461 -1.45078e-19)
(1.28117 0.684675 1.24577e-19)
(1.29014 0.702273 2.3677e-19)
(1.24456 0.692582 0)
(1.18594 0.675681 -1.78154e-19)
(1.12115 0.654676 4.81738e-19)
(1.0506 0.628532 2.82312e-19)
(0.974897 0.595618 0)
(0.895233 0.553865 -1.30501e-18)
(0.823901 0.508024 1.00923e-18)
(0.770581 0.466867 0)
(0.732043 0.432634 2.85853e-19)
(0.703504 0.40458 -1.99319e-21)
(0.678058 0.379674 -5.99576e-19)
(0.636507 0.348683 2.34698e-19)
(0.543454 0.293612 0)
(0.38066 0.203986 8.25664e-19)
(0.188137 0.0993337 0)
(0.0292419 0.0151776 -7.98427e-19)
(0.233508 0.133764 -8.62598e-20)
(1.09144 0.624916 -1.473e-19)
(1.27056 0.733719 1.34867e-19)
(1.27808 0.751716 0)
(1.23163 0.740434 -2.20521e-19)
(1.1722 0.721647 0)
(1.10633 0.698599 -5.02797e-19)
(1.03431 0.670246 -1.43471e-19)
(0.956663 0.63488 1.23624e-19)
(0.874551 0.590211 -6.4441e-19)
(0.80078 0.541072 1.06032e-19)
(0.74576 0.496694 0)
(0.706372 0.459557 -6.10601e-19)
(0.677666 0.429013 2.04538e-21)
(0.652465 0.40182 0)
(0.611428 0.367751 2.3179e-21)
(0.519383 0.307179 7.50731e-19)
(0.359054 0.209891 -7.10586e-19)
(0.173245 0.0994334 2.09501e-19)
(0.025696 0.0144142 0)
(0.233327 0.142804 0)
(1.08221 0.664256 -1.51428e-19)
(1.25941 0.780071 -1.34844e-19)
(1.2655 0.798377 -2.27121e-21)
(1.21828 0.785683 -1.10984e-19)
(1.15818 0.765238 -4.04653e-19)
(1.09137 0.7404 1.81608e-19)
(1.01801 0.710121 -1.58642e-19)
(0.938538 0.672604 5.37415e-19)
(0.853975 0.625327 -1.03017e-18)
(0.777614 0.573064 -3.30809e-21)
(0.720712 0.525413 -2.75167e-19)
(0.680282 0.485168 9.84733e-19)
(0.651267 0.451846 -2.41309e-21)
(0.626173 0.422021 -4.61193e-19)
(0.585109 0.384315 -8.19814e-19)
(0.493056 0.3175 0)
(0.334906 0.212383 0)
(0.156587 0.0971114 2.25632e-19)
(0.0218541 0.0131249 -1.31998e-19)
(0.233677 0.15182 -9.05264e-20)
(1.0734 0.701345 3.16812e-19)
(1.24802 0.823807 1.43683e-19)
(1.25268 0.842339 0)
(1.20478 0.828382 -1.54847e-21)
(1.14411 0.806482 -4.18941e-19)
(1.07649 0.780091 4.71061e-19)
(1.00193 0.748151 6.58395e-19)
(0.920714 0.708794 7.0939e-19)
(0.833701 0.659246 -8.48861e-19)
(0.754606 0.60411 -8.62814e-19)
(0.6955 0.553206 7.35374e-19)
(0.653734 0.509635 0)
(0.624238 0.473219 -2.10132e-19)
(0.599101 0.440389 -4.96671e-19)
(0.557522 0.39841 -5.86928e-19)
(0.464477 0.324431 -6.95639e-19)
(0.308497 0.211399 2.05609e-19)
(0.138408 0.0923467 -1.21104e-19)
(0.0177066 0.0113338 3.35928e-22)
(0.234068 0.160697 0)
(1.06519 0.736663 0)
(1.23656 0.865005 2.57758e-21)
(1.2398 0.883697 0)
(1.19133 0.868614 3.65058e-19)
(1.13018 0.845435 3.25768e-19)
(1.06187 0.817696 0)
(0.986221 0.784352 8.44638e-20)
(0.903373 0.743459 1.19985e-18)
(0.813933 0.692006 -1.94636e-18)
(0.731903 0.634309 0)
(0.670218 0.580254 -4.71856e-19)
(0.626723 0.533175 -2.95064e-21)
(0.596492 0.493318 -2.41783e-21)
(0.571139 0.456991 5.30696e-19)
(0.528609 0.409945 -4.19026e-22)
(0.433884 0.327911 -1.49392e-18)
(0.279889 0.206763 4.41643e-19)
(0.119283 0.0853772 1.30475e-19)
(0.013529 0.00920391 0)
(0.234464 0.169373 2.84286e-19)
(1.05732 0.770264 1.68267e-19)
(1.22514 0.903751 3.02897e-19)
(1.22703 0.922552 -5.59706e-19)
(1.17807 0.906447 6.34111e-19)
(1.11654 0.882158 0)
(1.04764 0.853265 3.11348e-19)
(0.971035 0.81875 -1.82811e-19)
(0.886661 0.77662 3.81405e-21)
(0.794819 0.72364 1.40644e-19)
(0.709652 0.663754 1.11965e-18)
(0.645001 0.606744 -1.66664e-19)
(0.599299 0.556063 -6.03727e-19)
(0.567919 0.512344 -2.42776e-19)
(0.542123 0.471809 2.8686e-19)
(0.49832 0.41869 -2.81045e-22)
(0.401613 0.327662 4.01825e-19)
(0.249845 0.198555 -9.48233e-19)
(0.0999123 0.0765744 1.12094e-18)
(0.00948421 0.00685503 1.63477e-19)
(0.234693 0.177724 -9.71595e-20)
(1.0498 0.802224 8.7331e-20)
(1.21388 0.940168 6.0779e-21)
(1.21447 0.959021 -2.86949e-19)
(1.16511 0.941985 -1.28799e-19)
(1.10329 0.916718 -6.10318e-19)
(1.03392 0.886842 1.05574e-19)
(0.956474 0.851366 -7.74437e-19)
(0.870688 0.808275 -1.34859e-18)
(0.776484 0.754148 -1.17167e-18)
(0.688043 0.692523 0)
(0.620016 0.632859 -7.21198e-19)
(0.571516 0.578588 8.64667e-19)
(0.538373 0.53056 0)
(0.511749 0.484785 -6.13547e-19)
(0.466512 0.424165 3.6493e-19)
(0.36796 0.323173 -4.30922e-19)
(0.219475 0.186869 -5.09605e-19)
(0.0812474 0.0664639 -9.01796e-19)
(0.00581521 0.00447863 -7.03001e-19)
(0.235215 0.185888 9.90582e-20)
(1.04248 0.832516 -9.31962e-20)
(1.20284 0.974335 -2.3694e-19)
(1.20222 0.99319 -3.74102e-19)
(1.15255 0.975315 2.78347e-19)
(1.09051 0.949198 -3.80645e-19)
(1.02077 0.91848 3.41128e-19)
(0.942607 0.882242 -8.16255e-19)
(0.855526 0.838446 -8.04911e-19)
(0.759055 0.783544 1.23802e-18)
(0.667239 0.720661 2.46279e-18)
(0.595448 0.658751 0)
(0.543499 0.601065 0)
(0.507681 0.548355 -2.78537e-19)
(0.479472 0.495938 0)
(0.432703 0.425595 7.84073e-19)
(0.333339 0.313371 9.26122e-19)
(0.190335 0.171453 0)
(0.0646718 0.0556056 0)
(0.00275218 0.00231178 7.54636e-19)
(0.23535 0.19356 -1.00805e-19)
(1.0354 0.861142 -8.51172e-20)
(1.19208 1.00637 -1.66657e-19)
(1.19032 1.02518 3.07767e-19)
(1.14043 1.00654 2.89951e-19)
(1.07826 0.979671 4.6208e-19)
(1.00825 0.94824 -4.81209e-19)
(0.929486 0.911407 2.17001e-22)
(0.841247 0.867142 -4.92095e-21)
(0.742624 0.811822 -5.72792e-21)
(0.647405 0.748187 1.26949e-18)
(0.571517 0.684525 0)
(0.515454 0.623791 8.67811e-19)
(0.475748 0.566251 5.93659e-19)
(0.444488 0.505605 1.41971e-18)
(0.395705 0.422134 4.20555e-19)
(0.297828 0.29604 -4.98623e-19)
(0.165351 0.150381 -2.93235e-19)
(0.0545385 0.0438725 0)
(0.00167622 0.000978071 8.09904e-19)
(0.235762 0.201202 2.03224e-19)
(1.02852 0.888201 0)
(1.1816 1.03633 -1.68389e-19)
(1.17882 1.05508 2.41169e-19)
(1.1288 1.03574 -2.98137e-19)
(1.06656 1.00822 -6.169e-19)
(0.996396 0.976178 1.00539e-18)
(0.91714 0.9389 -6.12765e-20)
(0.827882 0.894372 0)
(0.727256 0.838949 -1.38878e-18)
(0.628688 0.775085 -2.77678e-18)
(0.548456 0.710247 1.07626e-19)
(0.487711 0.646995 1.19079e-18)
(0.442674 0.584897 0)
(0.405925 0.514677 9.52506e-19)
(0.353192 0.413764 0)
(0.258688 0.267805 0)
(0.146704 0.114033 -3.16662e-19)
(0.0687032 0.0199618 0)
(0.0258931 0.0104856 2.16932e-19)
(0.23578 0.208207 2.06966e-19)
(1.02182 0.914026 0)
(1.1714 1.06442 -2.56959e-19)
(1.16767 1.08311 0)
(1.11763 1.06318 1.50107e-19)
(1.05535 1.03512 0)
(0.985132 1.0026 6.11612e-20)
(0.905472 0.965057 1.15792e-19)
(0.815315 0.920499 1.01543e-19)
(0.712804 0.865313 -1.53858e-18)
(0.610955 0.80178 8.57656e-20)
(0.526131 0.736485 8.53543e-19)
(0.460076 0.671271 1.15936e-18)
(0.408014 0.605329 1.53132e-19)
(0.362243 0.524995 7.41327e-19)
(0.301083 0.402743 0)
(0.204156 0.228999 1.04497e-18)
(0.105093 0.0518334 -6.12466e-19)
(0.0465106 0.0462254 7.13592e-19)
(-0.0679636 0.418109 -8.44671e-19)
(0.23577 0.214971 -1.59824e-19)
(1.01507 0.938439 -2.79398e-19)
(1.1614 1.09097 0)
(1.15676 1.10971 5.09437e-21)
(1.10673 1.08941 -3.83642e-19)
(1.0444 1.06105 1.06805e-18)
(0.974171 1.0283 3.89518e-19)
(0.8941 0.990806 0)
(0.803049 0.946603 7.08617e-19)
(0.698642 0.892208 -8.42918e-20)
(0.593356 0.829733 0)
(0.503475 0.765006 0)
(0.431244 0.698407 1.03597e-18)
(0.370497 0.629411 -4.67809e-19)
(0.310892 0.539918 -7.45783e-19)
(0.234789 0.395138 0)
(0.117108 0.210679 5.23992e-19)
(0.0112192 0.42896 -6.08611e-19)
(0.0400505 1.84738 -3.44171e-19)
(0.0707948 2.78869 -4.333e-19)
(0.235611 0.220877 1.05675e-19)
(1.00848 0.961593 3.32193e-19)
(1.15161 1.11595 -1.37371e-19)
(1.14607 1.1347 -1.69755e-19)
(1.09616 1.11422 0)
(1.03374 1.08572 7.31259e-19)
(0.963691 1.05295 5.91466e-19)
(0.883195 1.01572 -5.99274e-20)
(0.791332 0.972169 1.04413e-19)
(0.68513 0.919015 1.49173e-18)
(0.576469 0.858248 1.42508e-18)
(0.481461 0.795325 9.6295e-19)
(0.402341 0.728033 1.03937e-18)
(0.332347 0.655576 -1.09176e-18)
(0.257824 0.562358 -1.11994e-18)
(0.157326 0.421202 0)
(0.0586917 0.815754 0)
(0.115265 2.52027 2.96314e-19)
(0.117055 3.18309 0)
(0.119898 3.38115 7.34286e-19)
(0.237942 0.226306 0)
(1.00262 0.983639 0)
(1.1418 1.13923 0)
(1.13537 1.15789 -4.15126e-20)
(1.08561 1.13738 -3.32076e-19)
(1.02317 1.10899 5.19488e-19)
(0.953587 1.07647 4.03306e-19)
(0.872713 1.03969 -6.07862e-20)
(0.780129 0.997066 9.29854e-19)
(0.672296 0.945594 -1.00501e-20)
(0.560442 0.887209 2.84757e-18)
(0.460453 0.827237 -1.09251e-19)
(0.373884 0.760954 1.27641e-19)
(0.295756 0.680701 1.56346e-19)
(0.199427 0.5924 -4.33125e-23)
(0.12089 0.943522 1.79798e-21)
(0.15879 2.66605 -1.51873e-18)
(0.172413 3.28073 -5.84091e-19)
(0.158133 3.42502 3.17469e-19)
(0.142178 3.44921 -3.61402e-19)
(0.155465 0.182832 -5.11362e-20)
(0.991111 1.00745 0)
(1.13174 1.16102 2.33725e-19)
(1.12532 1.17979 3.98785e-19)
(1.07583 1.15965 -6.22567e-19)
(1.01356 1.1315 -5.37267e-19)
(0.943757 1.09895 -4.46526e-19)
(0.862749 1.06286 7.80734e-19)
(0.769627 1.02141 -7.8592e-19)
(0.660475 0.972011 0)
(0.545763 0.916659 1.42381e-18)
(0.441114 0.860428 -7.94974e-19)
(0.346736 0.799603 0)
(0.261747 0.708408 1.47754e-19)
(0.174377 0.820878 3.47962e-19)
(0.174322 2.40513 -4.17604e-19)
(0.242081 3.31656 4.74749e-19)
(0.218488 3.44257 2.66928e-19)
(0.181518 3.46576 3.07016e-19)
(0.156968 3.47676 5.15949e-19)
(0.280523 0.264041 1.0426e-19)
(0.975496 1.01641 0)
(1.11341 1.18538 -2.17871e-19)
(1.11108 1.21193 -3.75765e-19)
(1.06001 1.19234 5.91865e-19)
(0.997305 1.16469 5.07964e-19)
(0.926728 1.13354 5.84148e-19)
(0.845198 1.0986 5.96294e-20)
(0.750938 1.05924 8.01565e-19)
(0.639398 1.0136 1.37883e-18)
(0.520228 0.964446 8.45889e-20)
(0.408314 0.915896 7.24093e-19)
(0.298784 0.866428 1.23093e-19)
(0.229625 0.976719 -1.4795e-19)
(0.249033 2.25265 -3.40222e-19)
(0.317098 3.32022 3.53068e-19)
(0.302409 3.47763 -4.05928e-19)
(0.263799 3.50085 -2.37974e-19)
(0.224028 3.52921 -2.34185e-19)
(0.168627 3.52188 -2.66464e-20)
(0.268028 0.260518 0)
(0.972801 1.03835 -4.01517e-20)
(1.1055 1.20823 3.78144e-20)
(1.10136 1.23476 3.66347e-20)
(1.05016 1.2151 3.65626e-19)
(0.987544 1.18767 -4.82047e-19)
(0.916677 1.15667 -3.67588e-19)
(0.835101 1.1225 5.67399e-20)
(0.740595 1.08459 -8.6491e-19)
(0.628268 1.04169 -1.43353e-20)
(0.507226 0.997228 -2.6803e-18)
(0.392355 0.954919 1.02501e-19)
(0.286092 0.931409 -1.18797e-19)
(0.27029 1.43517 -1.41576e-19)
(0.353554 3.05427 1.80034e-20)
(0.382435 3.47289 9.25949e-22)
(0.338402 3.53854 6.9597e-19)
(0.298968 3.5631 3.77982e-19)
(0.247274 3.58744 -1.65952e-19)
(0.183571 3.58285 -1.59392e-19)
(0.251285 0.258486 -8.20306e-20)
(0.968412 1.06283 -2.53184e-19)
(1.09705 1.23309 1.06201e-19)
(1.09111 1.259 1.39872e-19)
(1.03982 1.23915 0)
(0.977366 1.21174 -6.28154e-19)
(0.906509 1.18096 -5.17026e-19)
(0.82517 1.14754 5.37352e-20)
(0.730746 1.11112 -9.43499e-20)
(0.618151 1.07114 -1.34101e-18)
(0.496017 1.03162 -1.28084e-18)
(0.380051 0.996474 -8.78308e-19)
(0.28978 1.05128 -9.13314e-19)
(0.34127 2.08526 9.3291e-19)
(0.444538 3.36788 8.36987e-19)
(0.430638 3.53814 0)
(0.379893 3.58552 0)
(0.341307 3.62918 -1.40999e-19)
(0.282019 3.69433 0)
(0.195958 3.66562 -2.38513e-19)
(0.239982 0.259732 1.01479e-19)
(0.962039 1.08828 1.88006e-19)
(1.08718 1.25906 0)
(1.07958 1.28404 6.00383e-21)
(1.02829 1.26377 3.08966e-19)
(0.966114 1.23624 -8.78139e-19)
(0.895602 1.2057 -3.23132e-19)
(0.81471 1.1729 4.75076e-20)
(0.720617 1.1379 -6.92882e-19)
(0.608158 1.10077 7.35567e-20)
(0.485745 1.06628 0)
(0.371017 1.04067 0)
(0.317034 1.26646 -8.71464e-19)
(0.429678 2.76393 3.62408e-19)
(0.522925 3.48875 5.11995e-19)
(0.478248 3.57562 0)
(0.437752 3.63559 -1.98978e-19)
(0.39582 3.70761 1.6113e-19)
(0.348543 3.70009 -6.10563e-21)
(0.226425 3.68596 -6.99559e-21)