/*--------------------------------*- C++ -*----------------------------------*\
  =========                 |
  \\      /  F ield         | OpenFOAM: The Open Source CFD Toolbox
   \\    /   O peration     | Website:  https://openfoam.org
    \\  /    A nd           | Version:  9
     \\/     M anipulation  |
\*---------------------------------------------------------------------------*/
FoamFile
{
    format      ascii;
    class       volScalarField;
    location    "10";
    object      p;
}
// * * * * * * * * * * * * * * * * * * * * * * * * * * * * * * * * * * * * * //

dimensions      [0 2 -2 0 0 0 0];

internalField   nonuniform List<scalar> 
8800
(
0.432112
0.384405
0.345865
0.317024
0.296343
0.281714
0.271352
0.264095
0.259423
0.257361
0.258338
0.262108
0.268295
0.277178
0.289598
0.307045
0.331589
0.365347
0.407698
0.46639
0.263133
0.270822
0.278668
0.282071
0.280732
0.275901
0.269714
0.26392
0.259409
0.256627
0.256179
0.258326
0.262344
0.267801
0.274102
0.27998
0.283333
0.282444
0.276718
0.267805
0.241123
0.247399
0.251832
0.25516
0.257591
0.258573
0.257797
0.255943
0.254031
0.253023
0.253721
0.2557
0.258017
0.259678
0.259757
0.258056
0.255232
0.251401
0.246603
0.242803
0.2351
0.237885
0.241104
0.244014
0.246051
0.247479
0.248467
0.248858
0.248776
0.248754
0.249126
0.249718
0.249967
0.249509
0.248462
0.246889
0.244504
0.241326
0.238521
0.237023
0.229548
0.231032
0.233739
0.236767
0.239389
0.241377
0.242699
0.243565
0.244113
0.244475
0.244812
0.244932
0.244632
0.243851
0.242409
0.24023
0.237469
0.234484
0.232505
0.231818
0.226787
0.227485
0.229327
0.231501
0.233591
0.235567
0.237306
0.238668
0.239639
0.240307
0.240613
0.240468
0.239809
0.238608
0.23698
0.23512
0.233063
0.230998
0.229774
0.229526
0.225777
0.226116
0.227072
0.22829
0.229629
0.230988
0.232294
0.233532
0.234612
0.235427
0.235802
0.235662
0.235104
0.234259
0.233246
0.232023
0.230923
0.229861
0.229262
0.229147
0.224209
0.224381
0.224911
0.225712
0.22663
0.227677
0.228908
0.230118
0.231231
0.232153
0.232651
0.232631
0.232209
0.231511
0.230741
0.230027
0.22934
0.228749
0.22845
0.228391
0.221707
0.22179
0.222101
0.22262
0.223228
0.223974
0.224854
0.22586
0.22692
0.227921
0.228595
0.228824
0.228723
0.228422
0.228137
0.227776
0.227411
0.22709
0.22695
0.226921
0.218712
0.21876
0.218988
0.219413
0.219948
0.220632
0.221423
0.222369
0.223441
0.224567
0.225462
0.225956
0.226139
0.226129
0.225972
0.225755
0.225515
0.225323
0.225252
0.225238
0.21539
0.21542
0.21558
0.215894
0.21633
0.216909
0.217661
0.218615
0.219773
0.221083
0.222255
0.223038
0.223486
0.223705
0.223777
0.223759
0.223689
0.223623
0.223604
0.223594
0.211702
0.211727
0.211857
0.212119
0.212515
0.213076
0.213848
0.214875
0.216183
0.217757
0.219269
0.220379
0.221106
0.221557
0.221813
0.221944
0.221998
0.22202
0.222032
0.222024
0.2076
0.207626
0.207752
0.208003
0.208402
0.208995
0.209844
0.211016
0.212565
0.214497
0.216431
0.217923
0.218946
0.219632
0.220069
0.220336
0.220492
0.220578
0.220614
0.220606
0.203036
0.203059
0.203202
0.203479
0.203925
0.204603
0.205594
0.206991
0.208875
0.211274
0.213726
0.215657
0.217052
0.217992
0.218614
0.219011
0.219255
0.219393
0.219449
0.219441
0.197949
0.197976
0.198143
0.19847
0.199002
0.199816
0.201021
0.202735
0.205069
0.208075
0.211187
0.21368
0.215464
0.216698
0.217523
0.218057
0.21839
0.218581
0.218657
0.218648
0.192219
0.192251
0.192459
0.192863
0.19352
0.194531
0.19603
0.19817
0.201097
0.20488
0.208813
0.211971
0.21425
0.215831
0.216893
0.217584
0.218017
0.218265
0.218363
0.218352
0.185688
0.185729
0.185993
0.186504
0.187334
0.188612
0.190506
0.19321
0.196905
0.201679
0.20664
0.210623
0.2135
0.215499
0.216844
0.217721
0.21827
0.218585
0.21871
0.218697
0.178142
0.178196
0.178535
0.17919
0.180256
0.181891
0.184309
0.187749
0.192436
0.198469
0.204714
0.209716
0.213327
0.215835
0.217522
0.218623
0.219313
0.219708
0.219865
0.219848
0.169288
0.169359
0.1698
0.170652
0.172037
0.174153
0.177262
0.181666
0.18763
0.195255
0.203101
0.209359
0.213867
0.216998
0.219104
0.220477
0.221337
0.221828
0.222022
0.222001
0.158717
0.158812
0.159393
0.160519
0.162352
0.165132
0.169153
0.174813
0.182424
0.192058
0.201886
0.209683
0.215289
0.21918
0.221799
0.223506
0.224571
0.225177
0.225417
0.225391
0.145858
0.145986
0.146764
0.148276
0.150726
0.154374
0.159662
0.167016
0.176749
0.188909
0.201174
0.210842
0.217782
0.222601
0.225852
0.227973
0.229295
0.23004
0.230334
0.230301
0.129913
0.130094
0.131156
0.133236
0.136565
0.141483
0.148489
0.158074
0.170556
0.185866
0.20109
0.213009
0.221556
0.227509
0.231541
0.234187
0.23584
0.236768
0.237128
0.23708
0.109707
0.10997
0.111472
0.114436
0.119073
0.125803
0.135231
0.147846
0.163855
0.183038
0.201789
0.216366
0.226831
0.234161
0.239169
0.24249
0.244587
0.245763
0.246206
0.24614
0.0833503
0.0837556
0.0860362
0.0904935
0.0972149
0.106732
0.119651
0.136325
0.156786
0.180614
0.203461
0.221099
0.233806
0.242799
0.249034
0.253242
0.255952
0.257494
0.258075
0.257982
0.0475413
0.0482812
0.0521917
0.0594658
0.0697899
0.0837116
0.101632
0.123665
0.149607
0.178846
0.206295
0.227345
0.242603
0.253574
0.261361
0.26677
0.270374
0.272476
0.273275
0.27315
-0.00404037
-0.00185144
0.00623001
0.0192379
0.0359184
0.0566116
0.0814371
0.110265
0.142689
0.177979
0.210396
0.235104
0.253153
0.266399
0.276112
0.28318
0.288167
0.291308
0.292569
0.292393
-0.0818757
-0.070923
-0.0523655
-0.0290597
-0.00283945
0.0268526
0.0601103
0.096746
0.136356
0.178262
0.216116
0.244929
0.266262
0.282345
0.294659
0.304227
0.311654
0.316948
0.319617
0.32
-0.164729
-0.140705
-0.11121
-0.0775962
-0.0416008
-0.00283754
0.0388203
0.0833461
0.130478
0.179694
0.223984
0.257938
0.283519
0.303326
0.319068
0.331877
0.342408
0.351656
0.357251
0.357803
-0.228101
-0.201909
-0.164229
-0.122413
-0.0779809
-0.0309612
0.0186518
0.0707515
0.125076
0.181148
0.231282
0.269639
0.298561
0.321013
0.338858
0.353312
0.365077
0.374693
0.379822
0.380523
-0.279075
-0.250806
-0.208511
-0.16092
-0.110122
-0.0564309
-4.90759e-05
0.0587507
0.119598
0.181909
0.237131
0.278986
0.310218
0.334139
0.352848
0.367766
0.379798
0.389335
0.394596
0.395366
-0.319956
-0.291237
-0.245581
-0.193771
-0.138188
-0.0792226
-0.0172211
0.0473764
0.114
0.181879
0.241612
0.286436
0.319456
0.3444
0.363635
0.378731
0.390729
0.399995
0.405282
0.406076
-0.354427
-0.325467
-0.277609
-0.222471
-0.162985
-0.0996646
-0.0329406
0.0366811
0.108511
0.181554
0.245456
0.292921
0.327463
0.353206
0.372773
0.387915
0.399813
0.408849
0.414098
0.414928
-0.384558
-0.355573
-0.306054
-0.248276
-0.18559
-0.118571
-0.0477028
0.0264226
0.102987
0.180788
0.248609
0.298614
0.334628
0.361149
0.381069
0.396304
0.408135
0.417043
0.422178
0.423015
-0.411801
-0.382772
-0.331929
-0.271975
-0.206621
-0.136452
-0.0619893
0.0161339
0.097061
0.179457
0.251216
0.303844
0.341419
0.3688
0.389137
0.404521
0.416338
0.425161
0.430174
0.431023
-0.436971
-0.40786
-0.355947
-0.294194
-0.226599
-0.153747
-0.0761122
0.00567023
0.0907146
0.177595
0.253355
0.308774
0.348083
0.376468
0.397331
0.412939
0.424799
0.433523
0.438407
0.439305
-0.460765
-0.431485
-0.37866
-0.31537
-0.24584
-0.170635
-0.0901913
-0.00509352
0.0838059
0.175071
0.254981
0.31345
0.354752
0.38435
0.405882
0.42181
0.433766
0.442445
0.447181
0.448123
-0.483447
-0.453953
-0.400324
-0.335809
-0.26461
-0.187355
-0.104428
-0.0163254
0.0762081
0.171794
0.256014
0.317846
0.36147
0.392541
0.414937
0.43131
0.443436
0.452116
0.456714
0.457632
-0.505375
-0.475561
-0.421246
-0.355685
-0.283056
-0.204035
-0.118909
-0.0280817
0.0678419
0.167659
0.256327
0.321863
0.368185
0.401064
0.424568
0.441554
0.453963
0.462697
0.467162
0.468015
-0.526589
-0.496491
-0.441636
-0.375077
-0.301219
-0.220679
-0.133645
-0.0403866
0.0586629
0.162567
0.255787
0.32534
0.374779
0.409856
0.434781
0.452597
0.465431
0.474281
0.478643
0.479341
-0.547164
-0.516785
-0.461441
-0.394013
-0.319127
-0.237301
-0.148628
-0.0532405
0.0486599
0.15644
0.254237
0.32807
0.381052
0.418801
0.445533
0.464453
0.477869
0.486931
0.491228
0.491718
-0.56715
-0.536317
-0.480672
-0.412502
-0.336759
-0.25386
-0.163811
-0.0665888
0.0378477
0.14924
0.251513
0.329811
0.386751
0.427692
0.456693
0.47706
0.491265
0.500613
0.504866
0.505131
-0.586576
-0.555475
-0.49927
-0.430509
-0.354059
-0.270289
-0.179118
-0.0803635
0.0262778
0.140954
0.247504
0.330326
0.391532
0.436169
0.468021
0.490277
0.505552
0.515296
0.519438
0.519484
-0.605268
-0.573872
-0.517231
-0.447979
-0.370968
-0.286508
-0.194465
-0.0944668
0.0140393
0.131618
0.242133
0.329374
0.39498
0.443779
0.479222
0.503997
0.520636
0.530748
0.534661
0.534456
-0.623217
-0.591545
-0.534524
-0.464862
-0.387417
-0.302452
-0.20975
-0.108797
0.00123395
0.121297
0.235353
0.326729
0.396715
0.450026
0.489824
0.518103
0.536657
0.546974
0.550273
0.549736
-0.64046
-0.608461
-0.551118
-0.481109
-0.403336
-0.318032
-0.224881
-0.123238
-0.0120168
0.110093
0.227173
0.32226
0.396366
0.454239
0.499082
0.532256
0.55404
0.564373
0.565767
0.564661
-0.656852
-0.624577
-0.566945
-0.496662
-0.41867
-0.333169
-0.239762
-0.137676
-0.0255838
0.0981496
0.217697
0.315871
0.393627
0.455629
0.505679
0.545307
0.573157
0.585456
0.582499
0.579063
-0.672486
-0.63992
-0.582019
-0.511537
-0.433458
-0.34791
-0.254451
-0.152174
-0.0395353
0.0854091
0.206828
0.307432
0.388227
0.453372
0.507887
0.554813
0.592336
0.614505
0.611623
0.586906
-0.687319
-0.654514
-0.596452
-0.525899
-0.447955
-0.362555
-0.269338
-0.167201
-0.0544141
0.0712126
0.193878
0.296055
0.379294
0.4464
0.502571
0.554784
0.599731
0.624463
0.6137
0.584309
-0.701237
-0.668473
-0.610074
-0.539513
-0.461881
-0.376776
-0.284188
-0.182422
-0.0698666
0.0559115
0.179066
0.28171
0.366551
0.4346
0.486101
0.53585
0.572716
0.582461
0.517288
0.470499
-0.713635
-0.682215
-0.622452
-0.551816
-0.474657
-0.390178
-0.298739
-0.197658
-0.0857324
0.0396665
0.162526
0.264487
0.349375
0.419162
0.460878
0.488294
0.509579
0.470092
0.391375
0.339058
-0.765994
-0.692388
-0.633674
-0.564217
-0.487634
-0.404019
-0.313116
-0.21317
-0.102342
0.0220908
0.143856
0.244161
0.326116
0.400036
0.419812
0.418216
0.388965
0.318987
0.226632
0.175608
-0.719786
-0.706308
-0.648919
-0.581701
-0.50578
-0.423314
-0.33438
-0.236198
-0.127176
-0.00460347
0.113685
0.208613
0.28254
0.342902
0.352142
0.218629
0.0905587
0.00205725
-0.0893521
-0.0370641
-0.746092
-0.719105
-0.662699
-0.595177
-0.52006
-0.438504
-0.350211
-0.253624
-0.146251
-0.0253988
0.089889
0.178896
0.244397
0.277222
0.217615
0.031644
-0.139795
-0.261187
-0.394981
-0.304195
-0.765038
-0.734074
-0.677952
-0.610064
-0.535473
-0.454765
-0.367513
-0.272746
-0.167535
-0.049287
0.062521
0.1449
0.199367
0.204325
0.0692311
-0.182581
-0.39714
-0.56187
-0.753262
-0.667121
-0.782525
-0.749967
-0.693025
-0.624808
-0.550586
-0.470763
-0.385034
-0.292186
-0.189359
-0.0737234
0.0342549
0.10922
0.149162
0.110722
-0.108134
-0.406217
-0.687124
-0.93372
-1.21303
-1.17896
-0.798285
-0.765733
-0.708177
-0.639784
-0.565977
-0.487149
-0.403084
-0.312497
-0.212306
-0.0990741
0.00517403
0.0718052
0.0927564
0.000527825
-0.283265
-0.617997
-0.964536
-1.28437
-1.65963
-2.03056
-0.813378
-0.781189
-0.723578
-0.655241
-0.58189
-0.50411
-0.421771
-0.333611
-0.236148
-0.125594
-0.0248655
0.0327931
0.0329774
-0.113949
-0.444352
-0.790355
-1.15529
-1.47041
-1.61542
-1.85051
-0.828415
-0.79657
-0.73924
-0.671234
-0.598487
-0.521952
-0.441661
-0.356442
-0.262329
-0.154746
-0.05728
-0.00934405
-0.0324185
-0.248137
-0.591585
-0.91873
-1.23045
-1.45078
-1.49594
-1.53123
-0.843636
-0.812104
-0.755106
-0.687555
-0.61563
-0.540595
-0.462795
-0.381195
-0.291238
-0.186691
-0.0909941
-0.0531176
-0.110355
-0.384157
-0.731145
-1.02527
-1.26655
-1.42196
-1.44437
-1.44191
-0.859116
-0.827754
-0.770983
-0.703987
-0.633024
-0.559798
-0.485016
-0.407854
-0.32291
-0.221942
-0.126833
-0.0974096
-0.193412
-0.51465
-0.872592
-1.14752
-1.28718
-1.34861
-1.38564
-1.39252
-0.87458
-0.843245
-0.786647
-0.720192
-0.650366
-0.579268
-0.508084
-0.436249
-0.357893
-0.261313
-0.164264
-0.141764
-0.28025
-0.654028
-1.02097
-1.32464
-1.31439
-1.34068
-1.41614
-1.43439
-0.889573
-0.85816
-0.801664
-0.735739
-0.667163
-0.598504
-0.531526
-0.46623
-0.396812
-0.306639
-0.205391
-0.183044
-0.362544
-0.807738
-1.2027
-1.64725
-1.79005
-1.64742
-1.59734
-1.58843
-0.903294
-0.871881
-0.81543
-0.750022
-0.682722
-0.616849
-0.554724
-0.497906
-0.440656
-0.360859
-0.253658
-0.227619
-0.45076
-0.946971
-1.37889
-1.80901
-1.91721
-1.7476
-1.69464
-1.67112
-0.915165
-0.88365
-0.827215
-0.762304
-0.696552
-0.633356
-0.576901
-0.530548
-0.491097
-0.432458
-0.324804
-0.293792
-0.561866
-1.03536
-1.33669
-1.43241
-1.49597
-1.56992
-1.64256
-1.66152
-0.924282
-0.892594
-0.836142
-0.771697
-0.707149
-0.646971
-0.59686
-0.563739
-0.551757
-0.536595
-0.456703
-0.432589
-0.70636
-1.15518
-1.45923
-1.51627
-1.61964
-1.72731
-1.79869
-1.83542
-0.929634
-0.897661
-0.841157
-0.777083
-0.713645
-0.656304
-0.613027
-0.596279
-0.623606
-0.699623
-0.714863
-0.677373
-0.928278
-1.39694
-1.94076
-2.39912
-2.57602
-2.53631
-2.40234
-2.33956
-0.930066
-0.897807
-0.841216
-0.777342
-0.71468
-0.65965
-0.622945
-0.624607
-0.706454
-0.94803
-1.17286
-1.07183
-1.18664
-1.6029
-2.2451
-2.99076
-3.23823
-3.05283
-2.75772
-2.62336
-0.924723
-0.892007
-0.835271
-0.771374
-0.708913
-0.655178
-0.623422
-0.642777
-0.789672
-1.2679
-1.82866
-1.54439
-1.28254
-1.36717
-1.67327
-2.08467
-2.16989
-1.90897
-1.59341
-1.45249
-0.912853
-0.87953
-0.822522
-0.758224
-0.695186
-0.641055
-0.611079
-0.640707
-0.838661
-1.53121
-2.47534
-1.84527
-1.10826
-0.521159
-0.120743
0.0782697
0.204948
0.406272
0.54875
0.599722
-0.893797
-0.85994
-0.802381
-0.737376
-0.672913
-0.616208
-0.582147
-0.607549
-0.807323
-1.5355
-2.51048
-1.61704
-0.578569
0.332112
0.963078
1.40015
1.66095
1.76097
1.80049
1.80906
-0.867032
-0.83292
-0.774905
-0.709023
-0.642294
-0.580879
-0.536911
-0.539367
-0.673984
-1.17698
-1.69223
-0.845743
0.0400152
0.80895
1.32248
1.65593
1.83802
1.9249
1.96095
1.96766
-0.832471
-0.798591
-0.740505
-0.673743
-0.604587
-0.537468
-0.480286
-0.44965
-0.4849
-0.655212
-0.67552
-0.0960975
0.508534
0.996484
1.31483
1.5228
1.64847
1.72184
1.75953
1.76733
-0.789818
-0.756389
-0.699437
-0.63244
-0.561511
-0.48942
-0.419975
-0.359023
-0.313821
-0.267275
-0.0864716
0.284942
0.68259
0.982467
1.18351
1.32059
1.41302
1.47481
1.50736
1.51189
-0.735712
-0.704889
-0.651361
-0.585299
-0.514171
-0.43948
-0.36191
-0.281218
-0.191639
-0.0639016
0.149332
0.414086
0.670243
0.869005
1.01198
1.11517
1.19001
1.24314
1.2703
1.27809
-0.670988
-0.643181
-0.594028
-0.53129
-0.462651
-0.388403
-0.308209
-0.2192
-0.113114
0.0317918
0.223303
0.421593
0.596395
0.734795
0.839902
0.919474
0.979286
1.02167
1.0462
1.05425
-0.58921
-0.570976
-0.525322
-0.468535
-0.405008
-0.335464
-0.258011
-0.169827
-0.0642227
0.0718806
0.230775
0.379188
0.502029
0.598451
0.672534
0.72962
0.773853
0.806219
0.825291
0.830214
-0.477744
-0.468709
-0.436535
-0.391015
-0.338331
-0.278738
-0.210531
-0.131226
-0.0357447
0.0833055
0.215049
0.332533
0.426935
0.499697
0.554524
0.594978
0.624553
0.646616
0.660503
0.663662
-0.360024
-0.356359
-0.335711
-0.303738
-0.264792
-0.218366
-0.162857
-0.0962456
-0.0147296
0.0862895
0.194615
0.288381
0.361983
0.417343
0.457689
0.486402
0.506199
0.519092
0.525249
0.526642
-0.247499
-0.245528
-0.234695
-0.215368
-0.189735
-0.156769
-0.114987
-0.0621519
0.00431686
0.0872304
0.175061
0.24939
0.30646
0.348375
0.377934
0.398005
0.410912
0.418559
0.422216
0.422685
-0.149318
-0.149198
-0.144807
-0.13521
-0.120535
-0.0993829
-0.0699913
-0.0303011
0.0218061
0.0881612
0.158451
0.217129
0.261175
0.292756
0.31443
0.328439
0.336926
0.341576
0.343463
0.343508
-0.0738756
-0.0746437
-0.0745338
-0.0717335
-0.0646968
-0.0518917
-0.0319021
-0.00286028
0.0369203
0.0888396
0.144081
0.189852
0.223769
0.24754
0.263237
0.273069
0.278809
0.281651
0.282641
0.282556
-0.0228661
-0.0237885
-0.0255781
-0.0260805
-0.0234865
-0.0162573
-0.00289201
0.0180272
0.0481361
0.0882696
0.131257
0.16665
0.192452
0.210267
0.221972
0.229115
0.232933
0.234619
0.23513
0.235004
0.00877115
0.00803242
0.00626916
0.0050995
0.00597844
0.0100695
0.0187793
0.0336936
0.0561496
0.0868225
0.119926
0.147137
0.166932
0.180424
0.18896
0.193948
0.196534
0.197548
0.197778
0.19766
0.0277605
0.0272821
0.0260493
0.0250941
0.0255437
0.0283325
0.0344809
0.0452016
0.0618009
0.0850524
0.110439
0.131249
0.146148
0.156098
0.162359
0.165957
0.167707
0.16829
0.168372
0.168274
0.039427
0.039133
0.0383703
0.0377616
0.0380626
0.0399898
0.0444383
0.0524146
0.0648619
0.0824071
0.101642
0.117391
0.128658
0.136198
0.140855
0.143448
0.144655
0.145011
0.145035
0.144956
0.0467068
0.0465243
0.0460449
0.045686
0.0459808
0.047433
0.0506814
0.056538
0.0658438
0.0791147
0.0937377
0.105712
0.114225
0.119831
0.123249
0.125131
0.12598
0.126202
0.126201
0.126137
0.0508931
0.0507754
0.0504528
0.0502233
0.0504792
0.0515978
0.0540655
0.0584746
0.0654568
0.075451
0.0864897
0.0955095
0.101898
0.106093
0.108633
0.110005
0.1106
0.110734
0.110719
0.110666
0.052725
0.0526465
0.0524261
0.0522787
0.052494
0.0533469
0.0552002
0.0585137
0.0637781
0.0713199
0.0796584
0.0864661
0.0912746
0.0944092
0.0962876
0.0972874
0.0977056
0.0977838
0.0977619
0.0977191
0.0527923
0.0527387
0.0525925
0.0525068
0.0526952
0.0533616
0.0547753
0.0572797
0.0612464
0.0669333
0.073221
0.0783449
0.0819482
0.0842854
0.0856749
0.0864032
0.0866963
0.0867381
0.0867133
0.0866783
0.0515609
0.0515225
0.0514242
0.0513771
0.0515367
0.0520549
0.0531334
0.0550301
0.0580266
0.0623138
0.0670496
0.070902
0.0736025
0.0753455
0.0763733
0.0769045
0.07711
0.0771302
0.0771056
0.0770769
0.0493676
0.0493388
0.0492708
0.049246
0.0493781
0.0497801
0.050603
0.0520401
0.0543013
0.0575341
0.0610983
0.063991
0.0660119
0.0673094
0.0680688
0.068455
0.0685978
0.0686036
0.0685799
0.0685566
0.0464519
0.0464297
0.0463802
0.0463662
0.0464719
0.0467816
0.0474077
0.0484947
0.0502003
0.0526344
0.0553132
0.0574818
0.0589918
0.059956
0.0605154
0.0607953
0.0608936
0.0608909
0.0608693
0.0608505
0.0429875
0.0429699
0.0429324
0.042923
0.0430042
0.0432394
0.043713
0.0445331
0.0458176
0.0476468
0.0496576
0.0512798
0.0524047
0.0531201
0.0535314
0.0537332
0.0537994
0.0537911
0.0537716
0.0537566
0.0391057
0.0390917
0.0390622
0.039054
0.0391144
0.0392907
0.0396463
0.040262
0.0412255
0.0425971
0.044101
0.0453111
0.0461478
0.0466761
0.046977
0.0471213
0.0471647
0.0471536
0.0471365
0.0471245
0.034906
0.0348948
0.0348709
0.0348625
0.0349056
0.0350356
0.0353002
0.0357597
0.0364793
0.037503
0.0386228
0.0395222
0.0401413
0.0405298
0.040748
0.0408498
0.0408772
0.0408649
0.04085
0.0408403
0.0304641
0.0304551
0.0304353
0.0304265
0.0304559
0.0305502
0.0307448
0.0310841
0.031617
0.0323754
0.0332047
0.0338684
0.0343226
0.0346049
0.0347616
0.0348323
0.0348481
0.0348354
0.0348226
0.034815
0.0258398
0.0258323
0.0258156
0.0258063
0.0258249
0.0258915
0.0260321
0.0262797
0.0266696
0.0272242
0.02783
0.0283135
0.0286428
0.0288459
0.0289568
0.0290047
0.0290127
0.0290004
0.0289894
0.0289835
0.0210799
0.0210738
0.0210595
0.0210499
0.0210603
0.0211053
0.0212036
0.0213794
0.0216582
0.0220565
0.0224913
0.0228371
0.0230713
0.0232142
0.0232899
0.0233202
0.023322
0.0233099
0.0233004
0.0232956
0.0162182
0.0162133
0.0162011
0.0161913
0.0161953
0.0162236
0.0162895
0.0164097
0.0166014
0.0168767
0.0171772
0.0174157
0.0175761
0.0176722
0.0177212
0.0177386
0.0177362
0.0177247
0.0177164
0.0177128
0.0112821
0.0112782
0.0112682
0.0112588
0.0112584
0.0112742
0.0113151
0.0113916
0.0115148
0.0116907
0.0118828
0.0120343
0.0121348
0.0121941
0.0122231
0.0122314
0.0122267
0.0122165
0.0122098
0.0122072
0.00629383
0.00629119
0.00628317
0.00627494
0.00627233
0.00627906
0.00629957
0.00633914
0.00640382
0.00649653
0.0065977
0.0066774
0.00673057
0.00676168
0.00677578
0.00677774
0.00677199
0.00676319
0.00675797
0.00675636
0.00126461
0.00126398
0.00126182
0.00125828
0.00125658
0.00125691
0.00125913
0.00126468
0.00127449
0.00128956
0.00130921
0.00132765
0.00134069
0.00134859
0.00135246
0.00135358
0.00135309
0.00135028
0.00134687
0.00134557
-0.861925
-0.596656
-0.303161
-0.068808
0.121028
0.274931
0.406212
0.517406
0.570076
0.546888
-0.390367
-0.21422
-0.0329024
0.122018
0.253504
0.364269
0.455031
0.520455
0.55477
0.565103
-0.0766075
0.0382876
0.157886
0.264138
0.356013
0.433245
0.494745
0.539627
0.570521
0.586903
0.13798
0.215602
0.299035
0.374055
0.439398
0.494647
0.539585
0.574633
0.601683
0.618962
0.296994
0.352691
0.41113
0.466342
0.515016
0.557068
0.592467
0.621213
0.644196
0.661415
0.421894
0.462664
0.50803
0.551183
0.590136
0.624566
0.654185
0.678597
0.698136
0.715165
0.526886
0.560002
0.599247
0.63595
0.669881
0.700326
0.726643
0.748196
0.76484
0.781804
0.623285
0.655226
0.692493
0.72735
0.7594
0.78802
0.812528
0.832201
0.846355
0.863385
0.723342
0.758228
0.796842
0.832166
0.863731
0.891219
0.914204
0.932236
0.944664
0.962107
0.841225
0.880096
0.919916
0.955282
0.985547
1.01108
1.0321
1.04848
1.06034
1.07848
0.988
1.02722
1.06399
1.09528
1.12157
1.14415
1.16362
1.17948
1.19216
1.21022
1.16421
1.19616
1.22273
1.24551
1.26582
1.28487
1.30284
1.31952
1.33505
1.35318
1.35347
1.37088
1.38617
1.40261
1.41868
1.43337
1.44674
1.46079
1.47842
1.49862
1.53554
1.54514
1.55684
1.56781
1.57718
1.58683
1.59774
1.6092
1.62064
1.63603
1.74299
1.74666
1.73172
1.71702
1.71097
1.71673
1.73525
1.7656
1.79776
1.82442
2.04938
1.91457
1.83805
1.79573
1.77823
1.78229
1.80971
1.86614
1.96883
2.19322
0.32268
0.320639
0.316185
0.307717
0.295697
0.283812
0.27385
0.266194
0.260752
0.257548
0.257036
0.259402
0.26406
0.27083
0.279791
0.29095
0.303291
0.314078
0.320081
0.323026
0.246845
0.252754
0.259135
0.263909
0.266644
0.266594
0.264146
0.260641
0.257373
0.255172
0.254843
0.256662
0.259815
0.263567
0.266889
0.268362
0.267058
0.263224
0.257824
0.251144
0.237908
0.240206
0.243954
0.247408
0.249925
0.251808
0.252917
0.252908
0.252065
0.251218
0.251196
0.252209
0.253537
0.254306
0.253933
0.252515
0.250434
0.247551
0.243799
0.240668
0.232221
0.233265
0.235553
0.238656
0.24133
0.243216
0.244515
0.245429
0.245989
0.246281
0.246566
0.246865
0.246903
0.246481
0.24561
0.244209
0.242034
0.239118
0.236303
0.234695
0.227699
0.228112
0.229797
0.232532
0.235192
0.237648
0.239635
0.241001
0.24188
0.242452
0.24286
0.243075
0.242877
0.242149
0.240731
0.238645
0.236208
0.233554
0.231212
0.230319
0.226298
0.226465
0.22735
0.2289
0.230554
0.232095
0.233567
0.235007
0.236257
0.23721
0.237777
0.237824
0.237367
0.236479
0.235377
0.234081
0.232599
0.23107
0.229804
0.229384
0.225098
0.225174
0.225641
0.226536
0.227585
0.228775
0.230121
0.231409
0.232559
0.233538
0.234206
0.234386
0.234094
0.233437
0.23248
0.231517
0.230613
0.229739
0.229083
0.228878
0.223062
0.223101
0.223341
0.223873
0.224559
0.225272
0.226232
0.227322
0.22845
0.229504
0.230305
0.230631
0.230512
0.230107
0.229569
0.229148
0.228647
0.228156
0.227838
0.227745
0.220244
0.220258
0.22041
0.220794
0.221315
0.221981
0.222758
0.223631
0.224635
0.225699
0.22665
0.227226
0.227422
0.22739
0.227234
0.226835
0.226604
0.226307
0.226125
0.226085
0.217096
0.217103
0.217203
0.217485
0.217911
0.218455
0.219147
0.220009
0.221044
0.22222
0.223376
0.224217
0.22467
0.224859
0.224883
0.2248
0.224668
0.224518
0.224435
0.224418
0.213594
0.213598
0.213674
0.213887
0.214233
0.214714
0.215367
0.216229
0.217332
0.218665
0.220095
0.221256
0.222008
0.222457
0.222702
0.222808
0.222831
0.222813
0.222804
0.222802
0.209705
0.209704
0.209779
0.209967
0.210284
0.210759
0.21144
0.212381
0.213633
0.215218
0.217001
0.218537
0.219611
0.220315
0.220758
0.221024
0.221172
0.221249
0.221289
0.221298
0.205378
0.205375
0.205455
0.20565
0.205983
0.206497
0.207258
0.208341
0.209824
0.211754
0.21399
0.215986
0.217405
0.218408
0.219066
0.219487
0.219746
0.219899
0.219977
0.219994
0.200566
0.20056
0.20065
0.200874
0.201258
0.201859
0.20276
0.204063
0.205872
0.208263
0.211076
0.21362
0.215508
0.21681
0.217696
0.218276
0.218643
0.218864
0.218977
0.219002
0.195175
0.195167
0.195277
0.195549
0.196015
0.196748
0.197855
0.199463
0.201712
0.204704
0.208251
0.211488
0.213884
0.215572
0.216723
0.217482
0.217967
0.218261
0.21841
0.218444
0.189069
0.189059
0.189198
0.189539
0.190123
0.191042
0.192429
0.194449
0.197277
0.201046
0.20552
0.209611
0.212643
0.214787
0.216251
0.217221
0.217842
0.218219
0.218411
0.218454
0.182063
0.182049
0.182228
0.182665
0.183411
0.18458
0.186342
0.188906
0.192489
0.197255
0.202899
0.20805
0.211864
0.214562
0.216406
0.217628
0.218413
0.218891
0.219132
0.219186
0.1739
0.173882
0.174117
0.174684
0.175649
0.177151
0.179411
0.182692
0.187258
0.193299
0.200416
0.206882
0.211659
0.215035
0.217341
0.218871
0.219856
0.220456
0.220759
0.220825
0.164234
0.164213
0.164525
0.165272
0.16653
0.168478
0.171399
0.175631
0.181478
0.189149
0.198111
0.206204
0.212161
0.216366
0.219239
0.221147
0.222378
0.223133
0.223512
0.223593
0.152592
0.152568
0.152993
0.153989
0.155647
0.158201
0.162051
0.167545
0.175041
0.184786
0.196047
0.206135
0.213534
0.218751
0.222317
0.224689
0.226226
0.227176
0.227654
0.227753
0.138302
0.138277
0.138874
0.140231
0.142454
0.145878
0.150957
0.158143
0.167839
0.180221
0.194319
0.206826
0.215966
0.222412
0.226826
0.22977
0.231686
0.232881
0.233488
0.233613
0.120362
0.120341
0.121214
0.123122
0.126184
0.130869
0.13773
0.147248
0.159804
0.175507
0.193056
0.20845
0.219665
0.227595
0.23305
0.236704
0.239091
0.240588
0.241356
0.241517
0.097246
0.0972547
0.0985994
0.101383
0.105782
0.112412
0.121858
0.134585
0.1509
0.17074
0.192409
0.211178
0.224826
0.23453
0.241271
0.245833
0.248838
0.250734
0.251721
0.251936
0.0664966
0.0666123
0.0688194
0.0731407
0.0798186
0.0895499
0.102844
0.120035
0.141216
0.166091
0.192552
0.215159
0.231588
0.243381
0.251712
0.25747
0.261342
0.263827
0.265125
0.265402
0.0236113
0.0240445
0.0282347
0.0357926
0.0467078
0.0615984
0.0806351
0.103866
0.131113
0.161882
0.193704
0.220514
0.240011
0.254188
0.264443
0.271773
0.2769
0.280355
0.282197
0.282556
-0.03977
-0.0376081
-0.0278084
-0.0132715
0.00566019
0.0288062
0.0558998
0.0867959
0.121194
0.158529
0.19607
0.227269
0.249989
0.266751
0.279213
0.2885
0.295373
0.300272
0.303151
0.303521
-0.115551
-0.111878
-0.0938417
-0.0678532
-0.0383415
-0.00567868
0.0301841
0.0692553
0.111323
0.155926
0.200166
0.236917
0.26405
0.28459
0.300449
0.312876
0.322773
0.330357
0.333612
0.335162
-0.19329
-0.18283
-0.155883
-0.119842
-0.0808198
-0.0390592
0.0053716
0.052484
0.102145
0.153991
0.204939
0.247209
0.278604
0.302673
0.321624
0.336844
0.349192
0.359008
0.364839
0.367343
-0.251229
-0.239643
-0.207723
-0.165212
-0.118872
-0.0696248
-0.0177277
0.0366797
0.0933658
0.151931
0.208999
0.256019
0.290726
0.317154
0.33775
0.35405
0.367067
0.377284
0.383663
0.386336
-0.297621
-0.285675
-0.250336
-0.203251
-0.151669
-0.0967273
-0.0387724
0.0218621
0.084771
0.149382
0.211846
0.262835
0.300065
0.32804
0.349542
0.366346
0.379589
0.389876
0.396339
0.398955
-0.335436
-0.323616
-0.286402
-0.235858
-0.180169
-0.120662
-0.057743
0.00815404
0.0764872
0.146534
0.213962
0.268548
0.30793
0.337132
0.359261
0.376306
0.389556
0.399762
0.406214
0.40869
-0.367992
-0.35634
-0.317682
-0.264529
-0.205578
-0.142307
-0.0751716
-0.00466905
0.0685559
0.143602
0.215614
0.273493
0.31483
0.345108
0.367759
0.385001
0.39827
0.408411
0.414884
0.417283
-0.396875
-0.385386
-0.345723
-0.290476
-0.228841
-0.162395
-0.0916096
-0.0170459
0.0605734
0.140226
0.216634
0.277795
0.321117
0.352517
0.375742
0.393228
0.40656
0.416657
0.423165
0.425479
-0.423248
-0.411853
-0.371388
-0.314405
-0.25056
-0.181443
-0.10753
-0.0293774
0.0522834
0.136358
0.217136
0.281675
0.327114
0.359756
0.383652
0.401451
0.414899
0.42499
0.431523
0.433757
-0.447858
-0.436511
-0.395362
-0.336934
-0.27122
-0.199814
-0.123155
-0.0417657
0.0436346
0.131935
0.217081
0.28517
0.332955
0.36704
0.391753
0.409971
0.423594
0.433715
0.440253
0.442385
-0.471169
-0.459833
-0.418094
-0.358451
-0.291136
-0.217735
-0.138662
-0.054384
0.0344465
0.126802
0.216372
0.28826
0.338687
0.374484
0.400218
0.418987
0.432865
0.44307
0.449592
0.451665
-0.493579
-0.482167
-0.439871
-0.37922
-0.310545
-0.235427
-0.154246
-0.0673757
0.0246363
0.120873
0.214906
0.290855
0.344279
0.382123
0.409136
0.428633
0.442879
0.453218
0.459734
0.461765
-0.515268
-0.503707
-0.460858
-0.39941
-0.329534
-0.25295
-0.16993
-0.0807641
0.0141443
0.114067
0.212548
0.29281
0.349621
0.389901
0.418524
0.438986
0.453744
0.464303
0.470813
0.472826
-0.536263
-0.524537
-0.481214
-0.419065
-0.348154
-0.270318
-0.185728
-0.0945562
0.00295283
0.106328
0.209178
0.29396
0.354535
0.397684
0.428303
0.450025
0.465502
0.476391
0.48293
0.484938
-0.556688
-0.544749
-0.50105
-0.438184
-0.366423
-0.287536
-0.201617
-0.108727
-0.00890992
0.0976372
0.20471
0.294114
0.358787
0.405252
0.438329
0.461678
0.478142
0.489537
0.496177
0.498064
-0.576446
-0.56432
-0.520312
-0.45678
-0.384302
-0.304553
-0.217531
-0.123204
-0.0213968
0.0880034
0.199068
0.293067
0.362081
0.412336
0.448423
0.473872
0.491593
0.503633
0.510423
0.512173
-0.595586
-0.583231
-0.538851
-0.474801
-0.401742
-0.3213
-0.233404
-0.137904
-0.0344308
0.077471
0.192197
0.290623
0.364093
0.41861
0.458308
0.486443
0.505814
0.518633
0.525524
0.527063
-0.613924
-0.601471
-0.556703
-0.492211
-0.418679
-0.337692
-0.24915
-0.152738
-0.0479114
0.0661198
0.184105
0.286654
0.364534
0.423566
0.467477
0.499075
0.520721
0.534432
0.541216
0.542417
-0.631586
-0.618982
-0.573828
-0.508971
-0.43507
-0.353679
-0.264666
-0.167604
-0.0617282
0.054068
0.174843
0.281108
0.363108
0.426558
0.475193
0.511337
0.536403
0.551346
0.557361
0.557734
-0.648434
-0.635653
-0.590222
-0.525024
-0.450833
-0.369183
-0.27987
-0.182378
-0.0757435
0.0414183
0.164503
0.273941
0.359625
0.42707
0.480522
0.522318
0.552727
0.570465
0.57464
0.57226
-0.664518
-0.651567
-0.605789
-0.540321
-0.465929
-0.384142
-0.294684
-0.196974
-0.0898419
0.0283443
0.153237
0.265153
0.353933
0.424835
0.482486
0.530301
0.568424
0.593209
0.598156
0.586682
-0.679766
-0.666677
-0.620656
-0.554985
-0.480543
-0.398814
-0.309429
-0.211796
-0.104502
0.0142922
0.140448
0.254145
0.345401
0.419061
0.479376
0.53227
0.579142
0.61531
0.625107
0.619343
-0.694172
-0.680869
-0.634815
-0.568981
-0.494675
-0.413206
-0.32408
-0.22684
-0.119739
-0.000804525
0.126035
0.240746