/*--------------------------------*- C++ -*----------------------------------*\
  =========                 |
  \\      /  F ield         | OpenFOAM: The Open Source CFD Toolbox
   \\    /   O peration     | Website:  https://openfoam.org
    \\  /    A nd           | Version:  9
     \\/     M anipulation  |
\*---------------------------------------------------------------------------*/
FoamFile
{
    format      ascii;
    class       surfaceScalarField;
    location    "10";
    object      phi;
}
// * * * * * * * * * * * * * * * * * * * * * * * * * * * * * * * * * * * * * //

dimensions      [0 3 -1 0 0 0 0];

internalField   nonuniform List<scalar> 
17370
(
-0.0915908
0.0960707
0.284531
-0.0777028
0.0595838
0.364894
-0.0432302
0.0318149
0.427583
-0.0225101
0.0164275
0.505334
-0.0117637
0.00880109
0.602365
-0.00649704
0.00497206
0.720582
-0.00373408
0.00287159
0.863769
-0.00212483
0.0015729
1.036
-0.00107368
0.000683354
1.24289
-0.000307718
-4.2916e-05
1.49154
0.000397092
-0.000777497
1.49157
0.00116261
-0.00165555
1.24318
0.00220085
-0.00293926
1.03638
0.00379415
-0.00502524
0.864138
0.0065455
-0.0088458
0.721358
0.011804
-0.0164617
0.603872
0.0225374
-0.0318337
0.508736
0.0432405
-0.0595881
0.432516
0.0777059
-0.0960717
0.365141
0.0915988
0.197412
-0.127224
0.0882533
0.0389708
-0.364495
0.354261
-0.0712136
0.0814479
-0.446528
0.454528
-0.0788605
0.0708607
-0.520868
0.529264
-0.062656
0.0542597
-0.612981
0.620714
-0.0467634
0.0390308
-0.727284
0.733593
-0.0325506
0.0262425
-0.867681
0.872322
-0.0212402
0.0165989
-1.03855
1.04173
-0.0130552
0.00988084
-1.24463
1.24688
-0.00746678
0.00521656
-1.49267
1.49455
-0.00338542
0.00150443
-1.4925
1.49423
0.00023994
-0.00197315
-1.244
1.24581
0.00382951
-0.00564087
-1.03758
1.03997
0.00786817
-0.0102607
-0.866244
0.869766
0.0134152
-0.0169376
-0.724745
0.729719
0.0215535
-0.0265279
-0.609152
0.615595
0.0327999
-0.0392427
-0.515062
0.52253
0.0469407
-0.054409
-0.439719
0.447891
0.0627736
-0.0709449
-0.374805
0.3774
0.0788961
-0.0814907
-0.257101
0.224837
0.0712475
-0.0389828
-0.0691942
0.0597647
0.00942951
-0.0510891
0.0576818
-0.375126
0.368533
-0.0568114
0.0530009
-0.45429
0.4581
-0.047583
0.0429981
-0.527859
0.532444
-0.0383522
0.0343007
-0.620688
0.624739
-0.0300277
0.0261202
-0.734335
0.738242
-0.0219325
0.0182271
-0.873591
0.877296
-0.014412
0.0111719
-1.04298
1.04622
-0.00790453
0.00511827
-1.24823
1.25102
-0.00221267
-0.000455191
-1.49657
1.49924
0.00311192
-0.00598513
-1.49698
1.49986
0.00872785
-0.0119368
-1.24968
1.25289
0.0151193
-0.0188651
-1.04529
1.04904
0.0225136
-0.0266434
-0.87681
0.88094
0.0305115
-0.0347487
-0.73877
0.743007
0.0387523
-0.0433476
-0.626152
0.630747
0.047895
-0.0532751
-0.535469
0.540849
0.0570456
-0.0578738
-0.45856
0.459388
0.0512296
-0.0313477
-0.337435
0.317553
0.00945494
-0.0691282
0.0596732
-0.0542852
0.0505746
0.00371068
-0.0306047
0.0401142
-0.359582
0.350072
-0.0433504
0.0427843
-0.459687
0.460253
-0.0401934
0.0373843
-0.53615
0.538959
-0.0340678
0.0309855
-0.628286
0.631368
-0.0275817
0.0245149
-0.741652
0.744719
-0.0212031
0.0182371
-0.880656
0.883622
-0.0150059
0.0120633
-1.04944
1.05238
-0.00882701
0.00584854
-1.25401
1.25699
-0.0025231
-0.000645158
-1.50217
1.50534
0.00380356
-0.00708824
-1.50302
1.5063
0.010006
-0.0131645
-1.25621
1.25937
0.0160293
-0.0191719
-1.05259
1.05574
0.0220575
-0.0252836
-0.884555
0.887782
0.0282871
-0.0316403
-0.746731
0.750084
0.034659
-0.0378965
-0.634757
0.637994
0.0406491
-0.0431849
-0.544689
0.547225
0.0436972
-0.0403893
-0.457613
0.454305
0.0307927
-0.0149037
-0.299253
0.283364
0.0037399
-0.0541693
0.0504294
-0.0478266
0.0458385
0.00198811
-0.0183119
0.0269051
-0.340696
0.332103
-0.0316059
0.032251
-0.460256
0.459611
-0.0310062
0.0290313
-0.541269
0.543244
-0.0268737
0.0248863
-0.633956
0.635943
-0.0226224
0.0204508
-0.747453
0.749624
-0.0179668
0.0156362
-0.886272
0.888602
-0.0130242
0.0105843
-1.05503
1.05747
-0.00783643
0.00521449
-1.25979
1.26241
-0.00214443
-0.000913791
-1.50851
1.51157
0.00394261
-0.00694746
-1.50948
1.51249
0.00949484
-0.0121493
-1.26225
1.2649
0.0144953
-0.0169945
-1.05852
1.06101
0.0192097
-0.0215714
-0.890632
0.892994
0.0236377
-0.0257845
-0.752957
0.755104
0.0276696
-0.0297214
-0.640581
0.642633
0.0316134
-0.032762
-0.549116
0.550265
0.0320277
-0.0272142
-0.450086
0.445273
0.0185131
-0.00790676
-0.269955
0.259349
0.00201973
-0.0476513
0.0456315
-0.0446071
0.0439723
0.000634802
-0.00801849
0.0137637
-0.324881
0.319136
-0.0184869
0.0204906
-0.458218
0.456214
-0.0209
0.0204326
-0.544567
0.545035
-0.0197322
0.0188855
-0.637412
0.638259
-0.0177967
0.0167258
-0.751067
0.752138
-0.0153694
0.0138863
-0.890486
0.891969
-0.0119575
0.00992113
-1.0597
1.06174
-0.00741679
0.00489152
-1.26495
1.26748
-0.00187016
-0.00112911
-1.51458
1.51758
0.00409675
-0.00703508
-1.51542
1.51836
0.00946085
-0.0118293
-1.26739
1.26975
0.0137239
-0.0154898
-1.06314
1.06491
0.0168323
-0.0180413
-0.894659
0.895868
0.0189912
-0.0200083
-0.756517
0.757535
0.0206898
-0.0212754
-0.64411
0.644696
0.0216426
-0.0211195
-0.550518
0.549995
0.0190024
-0.0141425
-0.440262
0.435402
0.00827062
-0.00300634
-0.251673
0.246408
0.000677005
-0.0443619
0.0436849
-0.0436642
0.043515
0.000149211
-0.00348895
0.00721908
-0.314558
0.310827
-0.0116343
0.0147512
-0.453667
0.45055
-0.0168727
0.0178394
-0.544764
0.543797
-0.0182099
0.0183184
-0.63842
0.638311
-0.0180219
0.0172175
-0.753097
0.753901
-0.0159166
0.0144293
-0.893424
0.894911
-0.012447
0.0103332
-1.06374
1.06585
-0.0076678
0.00494956
-1.27005
1.27277
-0.00169655
-0.00149193
-1.52062
1.5238
0.0046578
-0.00781926
-1.52137
1.52453
0.010392
-0.0128708
-1.27213
1.2746
0.0148166
-0.0166118
-1.06664
1.06843
0.0179403
-0.0190526
-0.897062
0.898174
0.019613
-0.0196281
-0.757982
0.757997
0.0194124
-0.01891
-0.644516
0.644014
0.0178036
-0.0155271
-0.548629
0.546353
0.0122616
-0.00767611
-0.430709
0.426124
0.00379266
-0.00115024
-0.242746
0.240103
0.000198754
-0.0433313
0.0431325
-0.0434661
0.0434641
1.9704e-06
-0.00160621
0.0040932
-0.307778
0.305291
-0.00802013
0.0117603
-0.447003
0.443263
-0.0151798
0.0174772
-0.542092
0.539795
-0.0188051
0.0191767
-0.638092
0.63772
-0.0189944
0.0184272
-0.754565
0.755133
-0.0172499
0.0156882
-0.896399
0.897961
-0.0135228
0.011166
-1.06811
1.07046
-0.00820446
0.00517887
-1.27567
1.2787
-0.00153617
-0.00206795
-1.52722
1.53082
0.00562375
-0.00911837
-1.52788
1.53137
0.0119468
-0.0146439
-1.27721
1.27991
0.0167329
-0.0185983
-1.07026
1.07212
0.019868
-0.0207429
-0.899118
0.899993
0.0211223
-0.0210768
-0.757982
0.757937
0.0204798
-0.0189122
-0.643029
0.641462
0.016411
-0.0127793
-0.543286
0.539654
0.00883859
-0.0046887
-0.421702
0.417553
0.00200189
-0.000522936
-0.238161
0.236682
6.58297e-05
-0.0430284
0.0429626
-0.0434641
0.0434649
-7.88058e-07
-0.00083935
0.00238396
-0.303289
0.301744
-0.00527751
0.00855092
-0.439614
0.436341
-0.0120766
0.0147753
-0.537146
0.534447
-0.0168081
0.0177934
-0.637134
0.636148
-0.017959
0.0174428
-0.755657
0.756173
-0.0163078
0.0148244
-0.899547
0.90103
-0.0127376
0.0104572
-1.07284
1.07512
-0.00757327
0.00460891
-1.28174
1.28471
-0.000956771
-0.00270404
-1.53452
1.53818
0.00629699
-0.0097659
-1.53492
1.53839
0.0125257
-0.01512
-1.28261
1.28521
0.017069
-0.0187743
-1.07397
1.07568
0.0199144
-0.0206709
-0.900802
0.901559
0.0207845
-0.020316
-0.757765
0.757297
0.0190148
-0.0166519
-0.63943
0.637067
0.0136616
-0.0098295
-0.535746
0.531914
0.00628663
-0.00310837
-0.41382
0.410641
0.00131704
-0.000391172
-0.235511
0.234585
7.63507e-05
-0.0428921
0.0428157
-0.0434839
0.0435227
-3.87609e-05
-0.000220416
0.000967733
-0.300628
0.29988
-0.0025934
0.00466383
-0.433644
0.431574
-0.00714672
0.00919487
-0.532011
0.529963
-0.0109422
0.0120101
-0.635013
0.633945
-0.0125668
0.0125512
-0.756426
0.756442
-0.0119977
0.0110369
-0.902272
0.903233
-0.00951121
0.00771922
-1.07719
1.07898
-0.00534496
0.0028289
-1.28749
1.29001
0.000301
-0.00344436
-1.54165
1.54479
0.0064995
-0.00938969
-1.54163
1.54452
0.0116214
-0.0136245
-1.28756
1.28956
0.0150064
-0.0160395
-1.07709
1.07812
0.0165475
-0.0166148
-0.902028
0.902096
0.0162057
-0.0151448
-0.756424
0.755363
0.0136722
-0.0114966
-0.634704
0.632528
0.00908057
-0.00621693
-0.528486
0.525622
0.00381913
-0.00184962
-0.408086
0.406116
0.000801858
-0.00025834
-0.233874
0.23333
5.71434e-05
-0.0427481
0.042691
-0.043575
0.043639
-6.39985e-05
0.00015366
0.000100127
-0.299413
0.299159
-0.000816059
0.00184393
-0.430073
0.429046
-0.00319298
0.00439934
-0.528344
0.527138
-0.00553057
0.00629945
-0.633002
0.632233
-0.0068075
0.00694943
-0.756336
0.756194
-0.00672998
0.00618447
-0.903954
0.9045
-0.0052016
0.00396145
-1.08048
1.08172
-0.00223451
0.000356859
-1.29221
1.29409
0.00198945
-0.00432015
-1.54754
1.54987
0.00654927
-0.00859153
-1.54699
1.54903
0.0100685
-0.0112503
-1.29115
1.29233
0.0119514
-0.0123182
-1.0788
1.07916
0.0122889
-0.0118816
-0.901882
0.901475
0.0111849
-0.0100929
-0.754255
0.753163
0.00882446
-0.00718474
-0.630606
0.628967
0.00554384
-0.00374969
-0.52333
0.521536
0.00233397
-0.00120324
-0.404627
0.403496
0.000581913
-0.000218907
-0.232899
0.232536
5.67923e-05
-0.0426368
0.04258
-0.0437154
0.0438009
-8.55243e-05
0.000387165
-0.000414047
-0.299079
0.299106
0.000223596
0.000161455
-0.428383
0.427998
-0.000729843
0.00127378
-0.526294
0.52575
-0.00181019
0.00218962
-0.631659
0.63128
-0.00244144
0.00249577
-0.756076
0.756022
-0.00233159
0.00195829
-0.904931
0.905305
-0.00128428
0.000418174
-1.08275
1.08362
0.000806486
-0.00214109
-1.29568
1.29701
0.00377782
-0.00536787
-1.55181
1.5534
0.00683544
-0.00807828
-1.55066
1.5519
0.0088694
-0.00940695
-1.29317
1.29371
0.00961501
-0.00952592
-1.07927
1.07918
0.00918831
-0.00858534
-0.900943
0.90034
0.00785153
-0.00688944
-0.752126
0.751164
0.00590207
-0.00474632
-0.62759
0.626434
0.00367568
-0.00256582
-0.520136
0.519026
0.00170465
-0.00099135
-0.402617
0.401903
0.000550081
-0.000238181
-0.23221
0.231898
6.94005e-05
-0.042518
0.0424486
-0.0438964
0.0440019
-0.00010547
0.000571042
-0.000768424
-0.299216
0.299413
0.000863379
-0.000847601
-0.427822
0.427806
0.000748231
-0.000638677
-0.525446
0.525336
0.000542011
-0.000505201
-0.631081
0.631044
0.000546873
-0.000679524
-0.756056
0.756188
0.000951672
-0.00133373
-0.905666
0.906048
0.00191546
-0.00260255
-1.08437
1.08506
0.00352302
-0.00449101
-1.29814
1.29911
0.00563308
-0.00668789
-1.5547
1.55575
0.00758542
-0.00826801
-1.55284
1.55352
0.00860352
-0.00864203
-1.29396
1.294
0.00848036
-0.0081041
-1.07894
1.07857
0.00761001
-0.00693329
-0.899696
0.89902
0.00622763
-0.00539364
-0.750274
0.74944
0.00460364
-0.00373629
-0.625448
0.62458
0.00296968
-0.0021912
-0.518117
0.517339
0.00157273
-0.00101685
-0.401292
0.400736
0.000619648
-0.000290434
-0.231584
0.231254
8.98237e-05
-0.0423698
0.0422799
-0.0441192
0.0442508
-0.000131615
0.000757629
-0.00108858
-0.299682
0.300013
0.00138983
-0.00160214
-0.427915
0.428127
0.00179439
-0.00196864
-0.525381
0.525555
0.00218223
-0.00241355
-0.631149
0.63138
0.0027189
-0.00305604
-0.756423
0.75676
0.00350114
-0.00398573
-0.906473
0.906957
0.00460945
-0.00526197
-1.08572
1.08637
0.00605712
-0.00682846
-1.29996
1.30073
0.00766802
-0.00836206
-1.55661
1.5573
0.00885661
-0.0090952
-1.55396
1.5542
0.00906778
-0.0088493
-1.29391
1.29369
0.00844907
-0.00787951
-1.07808
1.07751
0.00726323
-0.00652295
-0.898311
0.897571
0.00581434
-0.0050271
-0.74864
0.747853
0.00431671
-0.00356445
-0.623789
0.623036
0.00291378
-0.00225215
-0.516638
0.515976
0.00170522
-0.00117245
-0.400203
0.399671
0.000749005
-0.000364181
-0.230901
0.230516
0.000115702
-0.0421778
0.0420621
-0.0443996
0.044566
-0.000166419
0.000983131
-0.00144458
-0.300408
0.30087
0.00191447
-0.00230805
-0.428432
0.428825
0.00272296
-0.00311501
-0.525842
0.526234
0.00357638
-0.00403447
-0.631728
0.632186
0.0045813
-0.00512575
-0.757201
0.757745
0.00577395
-0.00641293
-0.907514
0.908153
0.00716004
-0.00787357
-1.08704
1.08775
0.00866707
-0.00936673
-1.30145
1.30215
0.0100463
-0.0105124
-1.55787
1.55833
0.0107293
-0.0106628
-1.55428
1.55421
0.0103762
-0.0098689
-1.29332
1.29281
0.00927993
-0.00853346
-1.07686
1.07611
0.00779625
-0.0069602
-0.89679
0.895954
0.00619321
-0.00536864
-0.747058
0.746233
0.00464271
-0.003887
-0.622295
0.621539
0.00323812
-0.00257299
-0.515325
0.51466
0.00200489
-0.00142083
-0.39912
0.398536
0.000927639
-0.000458401
-0.230093
0.229624
0.00014731
-0.0419314
0.0417841
-0.044755
0.0449661
-0.000211097
0.00126254
-0.00187349
-0.301402
0.302013
0.00252176
-0.00309213
-0.429302
0.429873
0.00371551
-0.00431001
-0.526725
0.527319
0.0050045
-0.00568201
-0.632753
0.633431
0.00647215
-0.00723678
-0.758398
0.759163
0.0081166
-0.00895022
-0.908885
0.909719
0.00988076
-0.0107237
-1.08853
1.08937
0.0116036
-0.0123199
-1.30285
1.30357
0.0129379
-0.0132647
-1.55872
1.55905
0.0132777
-0.0129616
-1.55401
1.5537
0.0124395
-0.0116859
-1.29218
1.29143
0.0108887
-0.00993956
-1.07527
1.07432
0.00904106
-0.00805164
-0.895048
0.894059
0.00716428
-0.00622596
-0.745361
0.744422
0.00540955
-0.00456604
-0.620749
0.619906
0.00384319
-0.00309731
-0.513963
0.513217
0.00244739
-0.00175901
-0.397906
0.397217
0.00115966
-0.000577
-0.229102
0.228519
0.000186267
-0.0416185
0.0414322
-0.0452083
0.0454786
-0.000270307
0.00162337
-0.00241887
-0.302709
0.303504
0.00327756
-0.00404721
-0.430529
0.431299
0.00489774
-0.00571003
-0.528015
0.528827
0.00665384
-0.00756881
-0.634227
0.635142
0.00862742
-0.00964208
-0.760052
0.761067
0.0107947
-0.0118685
-0.910667
0.91174
0.0130409
-0.014073
-1.0903
1.09133
0.0151097
-0.0159084
-1.30432
1.30512
0.0165325
-0.0167734
-1.55933
1.55957
0.0166196
-0.0160694
-1.55327
1.55272
0.0153117
-0.0142895
-1.29055
1.28952
0.013251
-0.0120513
-1.07325
1.07205
0.0109386
-0.00973173
-0.892967
0.891761
0.00866154
-0.0075389
-0.7434
0.742277
0.00656737
-0.00556661
-0.618994
0.617993
0.00470907
-0.00382041
-0.512411
0.511522
0.00303792
-0.00219691
-0.39646
0.395619
0.00145422
-0.000725395
-0.227868
0.227139
0.000234529
-0.0412238
0.0409892
-0.0457907
0.046141
-0.000350318
0.0020989
-0.00313116
-0.304405
0.305437
0.00425342
-0.00526446
-0.432162
0.433173
0.00638067
-0.00744329
-0.529759
0.530821
0.008671
-0.00985938
-0.636206
0.637395
0.0112325
-0.0125466
-0.762236
0.76355
0.0140333
-0.0154083
-0.912953
0.914328
0.0168919
-0.0181762
-1.09247
1.09375
0.0194356
-0.0203705
-1.30597
1.30691
0.0210481
-0.0212302
-1.55977
1.55996
0.0209158
-0.0201146
-1.55204
1.55124
0.0190895
-0.0177535
-1.28835
1.28701
0.0164222
-0.0149073
-1.0707
1.06918
0.0135177
-0.0120231
-0.890413
0.888919
0.0107054
-0.00932819
-0.741033
0.739656
0.00813845
-0.00691297
-0.616893
0.615668
0.0058612
-0.0047677
-0.510549
0.509455
0.00380016
-0.00275426
-0.394687
0.393642
0.0018259
-0.00091163
-0.226325
0.225411
0.000295032
-0.0407284
0.0404334
-0.0465437
0.0470046
-0.000460888
0.00273676
-0.00407819
-0.306597
0.307938
0.00553582
-0.00684105
-0.434295
0.4356
0.00826777
-0.00961871
-0.532055
0.533406
0.0111763
-0.012691
-0.638795
0.64031
0.0144508
-0.0161414
-0.765059
0.766749
0.0180538
-0.0198159
-0.915861
0.917623
0.0217008
-0.0233114
-1.09516
1.09677
0.0248625
-0.0259821
-1.30791
1.30903
0.0267459
-0.0268752
-1.5601
1.56023
0.0263807
-0.0252844
-1.5503
1.5492
0.0239361
-0.0222156
-1.28549
1.28377
0.0205218
-0.0186114
-1.06747
1.06556
0.0168714
-0.0150098
-0.887234
0.885372
0.0133748
-0.0116692
-0.738112
0.736407
0.0101954
-0.00867392
-0.614313
0.612792
0.0073631
-0.00599433
-0.508261
0.506892
0.00477974
-0.00346501
-0.392485
0.39117
0.0022983
-0.00114853
-0.224392
0.223242
0.00037271
-0.0401099
0.0397372
-0.047526
0.0481398
-0.000613822
0.00359859
-0.00534473
-0.309438
0.311184
0.00722427
-0.00888066
-0.437071
0.438728
0.010665
-0.0123517
-0.53505
0.536736
0.0143101
-0.0162427
-0.64214
0.644073
0.0185188
-0.0207137
-0.768669
0.770863
0.0231828
-0.0254324
-0.919541
0.921791
0.0278188
-0.0298365
-1.0985
1.10052
0.031748
-0.0330925
-1.31021
1.31155
0.0339571
-0.0340161
-1.5603
1.56036
0.0332948
-0.0318313
-1.54792
1.54645
0.0300805
-0.0278807
-1.28181
1.27961
0.0257349
-0.0233304
-1.06339
1.06099
0.0211526
-0.0188336
-0.883251
0.880932
0.0168041
-0.0146909
-0.734469
0.732356
0.0128633
-0.0109695
-0.611105
0.609211
0.00932678
-0.00759743
-0.505418
0.503689
0.00605514
-0.00438444
-0.389735
0.388064
0.00290794
-0.0014552
-0.221971
0.220519
0.000474858
-0.039341
0.0388661
-0.0488245
0.0496471
-0.00082259
0.00476287
-0.00704307
-0.31314
0.31542
0.00946192
-0.0115534
-0.440684
0.442776
0.0137758
-0.0158867
-0.538938
0.541049
0.0183752
-0.0208762
-0.64643
0.648931
0.0238511
-0.0267176
-0.773257
0.776123
0.0299103
-0.0327743
-0.924173
0.927037
0.0357622
-0.0382563
-1.10262
1.10511
0.0405761
-0.0421596
-1.31292
1.3145
0.0431033
-0.0430374
-1.56031
1.56024
0.0420075
-0.04007
-1.54474
1.5428
0.0378114
-0.035011
-1.2771
1.2743
0.0323013
-0.0292821
-1.05824
1.05522
0.0265606
-0.0236765
-0.878252
0.875368
0.0211637
-0.0185564
-0.729907
0.727299
0.0163028
-0.01396
-0.607091
0.604748
0.0119094
-0.00972187
-0.501868
0.499681
0.00774826
-0.00559857
-0.386299
0.38415
0.00370858
-0.00185669
-0.218947
0.217095
0.000609676
-0.0383886
0.0377789
-0.050568
0.051688
-0.00112
0.00640188
-0.00942434
-0.317993
0.321016
0.0125763
-0.0152499
-0.445386
0.448059
0.0180581
-0.0207463
-0.543979
0.546667
0.0239662
-0.0272245
-0.651948
0.655206
0.0310928
-0.0347812
-0.779097
0.782785
0.0388446
-0.0424577
-0.929967
0.93358
0.0461717
-0.0491959
-1.10766
1.11068
0.0519333
-0.0537257
-1.31606
1.31785
0.0546731
-0.054376
-1.56
1.5597
0.0529088
-0.0503505
-1.54052
1.53797
0.0474488
-0.0438983
-1.27111
1.26756
0.0404896
-0.0367098
-1.05177
1.04799
0.0333146
-0.0297301
-0.871994
0.868409
0.0266215
-0.023413
-0.724195
0.720986
0.0206495
-0.0177778
-0.602057
0.599186
0.0152458
-0.0125043
-0.497416
0.494675
0.00998558
-0.00720474
-0.382003
0.379222
0.00475965
-0.00237232
-0.215173
0.212785
0.000778927
-0.037208
0.0364291
-0.0529451
0.0545396
-0.00159454
0.00893486
-0.0130312
-0.324409
0.328505
0.0171662
-0.0205928
-0.451552
0.454979
0.0241707
-0.027644
-0.55053
0.554004
0.0318731
-0.0361565
-0.65902
0.663304
0.0411742
-0.0458595
-0.786521
0.791207
0.0509293
-0.0553416
-0.937192
0.941605
0.0597859
-0.0633253
-1.11371
1.11725
0.0664289
-0.0683428
-1.31955
1.32147
0.0691565
-0.0684654
-1.55912
1.55843
0.0663847
-0.0630204
-1.53497
1.53161
0.0593131
-0.0548418
-1.26352
1.25905
0.0505812
-0.0458743
-1.04368
1.03897
0.0416523
-0.0371994
-0.864198
0.859745
0.0333452
-0.0293824
-0.717075
0.713112
0.0259854
-0.0224711
-0.595759
0.592245
0.019367
-0.0159768
-0.491817
0.488426
0.0128082
-0.00925028
-0.376598
0.37304
0.00609219
-0.00301825
-0.210449
0.207375
0.000981741
-0.0357359
0.0347541
-0.0562693
0.0586868
-0.00241743
0.013123
-0.0187611
-0.333049
0.338688
0.0241796
-0.0285892
-0.459757
0.464167
0.0332188
-0.0377901
-0.559103
0.563675
0.0433797
-0.0489481
-0.668147
0.673715
0.0553039
-0.061085
-0.795899
0.80168
0.0671982
-0.0724103
-0.945996
0.951208
0.0775417
-0.0815022
-1.1207
1.12466
0.0848102
-0.0866541
-1.32315
1.32499
0.0870909
-0.0857672
-1.55732
1.55599
0.082845
-0.0784572
-1.52769
1.5233
0.0737701
-0.0682059
-1.25401
1.24845
0.0629453
-0.057152
-1.03365
1.02786
0.0519553
-0.0464637
-0.854559
0.849067
0.0416989
-0.0367962
-0.708256
0.703354
0.0325984
-0.0282706
-0.587918
0.58359
0.0244543
-0.0202789
-0.484778
0.480602
0.0163319
-0.011847
-0.369743
0.365259
0.00780466
-0.00383987
-0.204492
0.200527
0.00123279
-0.0338912
0.0326585
-0.0611497
0.0650677
-0.003918
0.0202809
-0.0281908
-0.344999
0.352909
0.035409
-0.0411858
-0.470799
0.476576
0.0473195
-0.0534402
-0.570359
0.576479
0.0608037
-0.0678827
-0.679858
0.686937
0.0756684
-0.0825241
-0.807487
0.814343
0.0895665
-0.0953899
-0.956327
0.962151
0.10091
-0.10496
-1.12835
1.1324
0.108064
-0.109456
-1.32638
1.32778
0.109102
-0.106793
-1.55403
1.55172
0.102728
-0.0970689
-1.5182
1.51254
0.0912293
-0.0844206
-1.24222
1.23541
0.0780466
-0.0710574
-1.02139
1.0144
0.0647909
-0.0581515
-0.842772
0.836133
0.052368
-0.046391
-0.697414
0.691437
0.0412551
-0.0359556
-0.578196
0.572897
0.0312799
-0.0261282
-0.475931
0.47078
0.0211683
-0.015434
-0.361022
0.355287
0.0101826
-0.0049945
-0.196899
0.191711
0.00158452
-0.0315717
0.0299872
-0.0687913
0.0760431
-0.00725181
0.0341055
-0.0455969
-0.362391
0.373882
0.0552155
-0.0626367
-0.485871
0.493292
0.0705797
-0.0785323
-0.585056
0.593009
0.0877718
-0.0962015
-0.694428
0.702857
0.105078
-0.112599
-0.821054
0.828575
0.120034
-0.125908
-0.967619
0.973493
0.131174
-0.134707
-1.13589
1.13943
0.136979
-0.137354
-1.32843
1.32881
0.135662
-0.131907
-1.54851
1.54476
0.126336
-0.119135
-1.50599
1.49879
0.111967
-0.103796
-1.22785
1.21968
0.0962394
-0.0880139
-1.00668
0.998458
0.0806603
-0.0728697
-0.828641
0.82085
0.0660639
-0.0589951
-0.684301
0.677232
0.0528905
-0.0465773
-0.566255
0.559942
0.0410014
-0.0347867
-0.464804
0.458589
0.0285564
-0.0209859
-0.349749
0.342178
0.0137712
-0.0065787
-0.186995
0.179803
0.00198668
-0.028638
0.0266513
-0.0831205
0.0862944
-0.00317392
0.0224843
-0.032293
-0.388527
0.398336
0.0412652
-0.049024
-0.505985
0.513744
0.0582614
-0.0679792
-0.602987
0.612705
0.0786787
-0.0882399
-0.711019
0.72058
0.0988844
-0.108297
-0.83539
0.844802
0.118073
-0.126459
-0.978478
0.986864
0.134802
-0.141492
-1.14192
1.14861
0.147455
-0.151356
-1.32805
1.33195
0.153436
-0.152812
-1.53981
1.53919
0.149351
-0.143439
-1.49054
1.48462
0.136469
-0.127589
-1.21068
1.2018
0.118865
-0.10836
-0.989496
0.978991
0.0986775
-0.087987
-0.812215
0.801525
0.0783866
-0.0681557
-0.668976
0.658745
0.0588827
-0.0493525
-0.552045
0.542515
0.0411219
-0.0318103
-0.450995
0.441684
0.0231144
-0.0140775
-0.334734
0.325697
0.00731026
-0.00244269
-0.173238
0.168371
0.000273454
-0.0248243
0.0245509
-0.0935265
0.0897584
0.00376812
-0.00110737
-0.00455202
-0.411211
0.416871
0.0120999
-0.0190498
-0.52572
0.53267
0.0278381
-0.0362819
-0.62264
0.631083
0.0458883
-0.0546643
-0.730144
0.73892
0.0640308
-0.0725304
-0.853814
0.862314
0.0813755
-0.0886913
-0.995045
1.00236
0.0961816
-0.101879
-1.15522
1.16091
0.106945
-0.110028
-1.33568
1.33876
0.111136
-0.109881
-1.53792
1.53667
0.105974
-0.0998319
-1.47814
1.47199
0.0926487
-0.0837856
-1.19263
1.18377
0.0752479
-0.0654714
-0.96841
0.958634
0.0563115
-0.0461438
-0.790233
0.780065
0.037049
-0.0277146
-0.646825
0.63749
0.0197413
-0.0115268
-0.530532
0.522318
0.00450907
0.00217884
-0.42986
0.423172
-0.00682887
0.00933698
-0.315405
0.312897
-0.00871016
0.00569416
-0.161703
0.164719
-0.00240427
-0.0231759
0.0255802
-0.0919437
0.0880652
0.00387849
-0.00855169
0.006233
-0.426081
0.4284
-0.00139379
-0.00430581
-0.542402
0.548102
0.0114738
-0.0186525
-0.639815
0.646994
0.026792
-0.0342724
-0.747236
0.754716
0.0424844
-0.0498018
-0.870179
0.877496
0.0572214
-0.0637329
-1.00955
1.01607
0.0702556
-0.0753538
-1.16633
1.17143
0.079534
-0.0819433
-1.34139
1.3438
0.0828197
-0.0814187
-1.53501
1.53361
0.0776664
-0.0720222
-1.46566
1.46002
0.0656433
-0.0580956
-1.1753
1.16775
0.0506246
-0.0424577
-0.949143
0.940976
0.0349552
-0.0267899
-0.770695
0.762529
0.0198213
-0.0127084
-0.628019
0.620906
0.00688765
-0.000977924
-0.512763
0.506853
-0.00355926
0.00748886
-0.414565
0.410636
-0.00974034
0.00978325
-0.306467
0.306424
-0.00763281
0.004362
-0.162984
0.166255
-0.00170911
-0.0257564
0.0274655
-0.088886
0.0852751
0.00361097
-0.0107067
0.0102776
-0.435313
0.435742
-0.00708091
0.00249901
-0.555486
0.560068
0.00358845
-0.0094761
-0.653961
0.659848
0.0163078
-0.0226156
-0.761941
0.768249
0.029511
-0.0356958
-0.884377
0.890562
0.0423696
-0.0478964
-1.02221
1.02774
0.0536681
-0.0578109
-1.17625
1.1804
0.0615667
-0.0637619
-1.34621
1.34841
0.064494
-0.0630654
-1.53213
1.5307
0.0599457
-0.0552664
-1.45436
1.44968
0.0499451
-0.0434193
-1.16059
1.15406
0.0373553
-0.0308321
-0.933216
0.926693
0.0247782
-0.0185603
-0.755061
0.748843
0.012971
-0.00753534
-0.613602
0.608167
0.00314319
0.000886969
-0.499966
0.495936
-0.00375273
0.00606442
-0.404334
0.402022
-0.00724931
0.00665933
-0.301891
0.302481
-0.00500233
0.00281362
-0.164727
0.166916
-0.00113151
-0.0271339
0.0282654
-0.0860714
0.0831589
0.00291252
-0.0103718
0.0111368
-0.441197
0.440432
-0.00863769
0.00502142
-0.566216
0.569832
-0.000146127
-0.00505336
-0.665743
0.670943
0.010688
-0.0161503
-0.774171
0.779633
0.0220369
-0.0273565
-0.896395
0.901715
0.0330643
-0.0380039
-1.03318
1.03812
0.042959
-0.0468884
-1.18451
1.18844
0.0502853
-0.0523218
-1.35045
1.35249
0.0530955
-0.0519571
-1.52941
1.52827
0.049384
-0.0453101
-1.44479
1.44072
0.0408514
-0.0355276
-1.148
1.14267
0.0305072
-0.0250203
-0.920408
0.914921
0.0201533
-0.0150879
-0.742869
0.737803
0.0107489
-0.00645027
-0.602729
0.59843
0.0030916
-7.41977e-05
-0.490744
0.487726
-0.00217388
0.00381972
-0.397295
0.395649
-0.00450196
0.00436873
-0.298731
0.298864
-0.00339595
0.00185916
-0.16474
0.166277
-0.000817109
-0.0276006
0.0284178
-0.0839397
0.0815705
0.00236923
-0.00922496
0.0101423
-0.444931
0.444013
-0.00872745
0.00564421
-0.574481
0.577564
-0.00113428
-0.00322457
-0.675656
0.680015
0.00800576
-0.0126973
-0.784588
0.789279
0.0178737
-0.0225939
-0.906785
0.911505
0.0278049
-0.0321467
-1.04284
1.04718
0.0366616
-0.0403005
-1.19217
1.19581
0.0434684
-0.0454439
-1.35442
1.3564
0.0463121
-0.0457963
-1.5273
1.52679
0.0436258
-0.0402769
-1.43654
1.43319
0.0364079
-0.0317776
-1.1375
1.13287
0.0276268
-0.0227735
-0.909639
0.904785
0.0185392
-0.0142826
-0.732925
0.728668
0.0105769
-0.00689597
-0.594173
0.590492
0.00396751
-0.00116655
-0.483648
0.480847
-0.000609589
0.00202267
-0.391729
0.390316
-0.0029577
0.00307381
-0.295372
0.295255
-0.00243536
0.00143319
-0.163694
0.164696
-0.0006403
-0.027553
0.0281933
-0.0824653
0.0806633
0.00180203
-0.00761443
0.00864845
-0.447571
0.446537
-0.00739662
0.00498669
-0.581722
0.584132
-0.000998629
-0.00285337
-0.68416
0.688012
0.00734375
-0.0113469
-0.793793
0.797796
0.0158622
-0.0200262
-0.916277
0.920441
0.0249621
-0.0289261
-1.05161
1.05558
0.0329931
-0.0365177
-1.19935
1.20288
0.0399456
-0.0419298
-1.3585
1.36048
0.0430733
-0.0427623
-1.52606
1.52575
0.0412465
-0.038121
-1.42982
1.4267
0.0348359
-0.0308318
-1.12826
1.12426
0.026997
-0.0227865
-0.900131
0.895921
0.0189124
-0.0148661
-0.724288
0.720242
0.0116921
-0.00821287
-0.586648
0.583168
0.00535227
-0.00282875
-0.477285
0.474761
0.000939938
0.00069042
-0.386907
0.385277
-0.00161582
0.00196121
-0.292098
0.291752
-0.00165498
0.00103675
-0.162108
0.162726
-0.000498991
-0.0272537
0.0277527
-0.0816707
0.080266
0.00140471
-0.00606841
0.00709063
-0.44959
0.448568
-0.00588313
0.00360768
-0.587921
0.590197
-7.37538e-05
-0.00330931
-0.691688
0.695071
0.00710763
-0.010935
-0.801897
0.805724
0.0150689
-0.0193421
-0.92449
0.928763
0.0235713
-0.0273542
-1.05969
1.06347
0.0315576
-0.03489
-1.20636
1.20969
0.0379367
-0.0404116
-1.36246
1.36494
0.0418697
-0.0419841
-1.52559
1.5257
0.0407681
-0.0382894
-1.42385
1.42137
0.0353512
-0.0316572
-1.12001
1.11632
0.0281476
-0.0241604
-0.891631
0.887644
0.0204964
-0.0167757
-0.716257
0.712536
0.0134218
-0.0100962
-0.579499
0.576173
0.00737392
-0.00464455
-0.471475
0.468746
0.00257499
-0.00103191
-0.381999
0.380455
-9.29027e-05
0.000787705
-0.288612
0.287917
-0.0009125
0.000661835
-0.160156
0.160407
-0.000381246
-0.0267894
0.0271707
-0.0814856
0.0803061
0.00117951
-0.00450223
0.00519765
-0.45146
0.450764
-0.00419629
0.00201079
-0.593475
0.595661
0.00110733
-0.00429248
-0.698568
0.701754
0.007875
-0.0112826
-0.809465
0.812872
0.015485
-0.0189814
-0.932531
0.936027
0.0231588
-0.0267652
-1.06745
1.07106
0.0308708
-0.034417
-1.21308
1.21663
0.0377926
-0.040129
-1.36728
1.36961
0.0420034
-0.0425875
-1.52582
1.5264
0.0420411
-0.0398648
-1.41881
1.41664
0.0372784
-0.0338211
-1.11269
1.10924
0.0304943
-0.0265613
-0.883417
0.879484
0.0230485
-0.0192307
-0.708555
0.704738
0.0158746
-0.0124344
-0.572597
0.569157
0.00950537
-0.00683976
-0.465468
0.462803
0.00454759
-0.00273735
-0.377037
0.375227
0.001321
-0.000355993
-0.284799
0.283834
-0.000106566
0.000351451
-0.15772
0.157475
-0.000266412
-0.0261282
0.0263946
-0.0815837
0.0807289
0.000854711
-0.00322576
0.00340168
-0.453557
0.453381
-0.00260565
0.000502631
-0.598222
0.600325
0.00222223
-0.00522297
-0.704825
0.707826
0.00858947
-0.012073
-0.816233
0.819717
0.0156529
-0.0192657
-0.939745
0.943358
0.0233818
-0.0267812
-1.07511
1.07851
0.0309819
-0.0345065
-1.22006
1.22359
0.0379788
-0.0408791
-1.37244
1.37534
0.0433002
-0.044224
-1.52712
1.52804
0.04396
-0.0424556
-1.41463
1.41313
0.0403027
-0.037018
-1.10561
1.10233
0.0337034
-0.0299837
-0.875403
0.871684
0.0261142
-0.0223677
-0.70061
0.696863
0.018927
-0.0152805
-0.565642
0.561995
0.0123358
-0.00934147
-0.459275
0.45628
0.00691514
-0.00464044
-0.371992
0.369718
0.00304973
-0.00173973
-0.280593
0.279283
0.000725138
-2.109e-05
-0.154804
0.1541
-0.000176072
-0.0252344
0.0254104
-0.0820692
0.0813457
0.000723474
-0.00226293
0.00241921
-0.455883
0.455727
-0.00113696
-0.000669935
-0.602897
0.604704
0.00344431
-0.00625052
-0.71049
0.713297
0.0094152
-0.0124804
-0.822946
0.826011
0.0161343
-0.0194143
-0.946989
0.950269
0.023453
-0.0272459
-1.08237
1.08616
0.0310978
-0.0349555
-1.22721
1.23107
0.0388754
-0.0419238
-1.37827
1.38132
0.0447931
-0.0465558
-1.52931
1.53108
0.0467812
-0.0459011
-1.41152
1.41064
0.0439053
-0.0409213
-1.09902
1.09604
0.0377942
-0.0339561
-0.867509
0.863671
0.0301563
-0.0261894
-0.692541
0.688574
0.0225879
-0.0186703
-0.55808
0.554163
0.0154033
-0.0122286
-0.45272
0.449545
0.00939049
-0.00681042
-0.366343
0.363763
0.00482342
-0.00309696
-0.2758
0.274073
0.00170887
-0.000498326
-0.151346
0.150136
-2.47752e-05
-0.0241707
0.0241955
-0.0827593
0.0821773
0.000581934
-0.00130416
0.00124055
-0.458344
0.458408
-0.000194021
-0.00182174
-0.607043
0.609059
0.00442457
-0.00701387
-0.715807
0.718397
0.0102015
-0.0130805
-0.829089
0.831968
0.016545
-0.0199058
-0.954005
0.957365
0.02382
-0.0275556
-1.08983
1.09356
0.0316041
-0.0354944
-1.2349
1.23879
0.03963
-0.0434641
-1.38475
1.38859
0.0468683
-0.0490417
-1.53296
1.53513
0.0500429
-0.0495348
-1.40974
1.40923
0.0480841
-0.0455514
-1.09298
1.09045
0.0423627
-0.0385296
-0.85952
0.855687
0.0346723
-0.0303843
-0.684155
0.679867
0.0266375
-0.0224086
-0.550176
0.545947
0.018905
-0.0152665
-0.445658