/*--------------------------------*- C++ -*----------------------------------*\
  =========                 |
  \\      /  F ield         | OpenFOAM: The Open Source CFD Toolbox
   \\    /   O peration     | Website:  https://openfoam.org
    \\  /    A nd           | Version:  9
     \\/     M anipulation  |
\*---------------------------------------------------------------------------*/
FoamFile
{
    format      ascii;
    class       volVectorField;
    location    "10";
    object      U;
}
// * * * * * * * * * * * * * * * * * * * * * * * * * * * * * * * * * * * * * //

dimensions      [0 1 -1 0 0 0 0];

internalField   nonuniform List<vector> 
8800
(
(0.979776 -0.0915001 0)
(1.00225 -0.0589008 0)
(0.999701 -0.032283 0)
(1.00013 -0.0166805 0)
(1.00009 -0.00888619 0)
(1.00001 -0.00498857 0)
(1.00004 -0.0028827 0)
(1.00003 -0.0016143 0)
(0.999999 -0.000767046 0)
(1.00005 -0.000135198 0)
(0.999994 0.00050854 0)
(1.00003 0.00123062 0)
(1.00006 0.00224582 0)
(1.00003 0.00384346 0)
(1.00003 0.00666711 0)
(1.00015 0.0121493 0)
(1.00001 0.0232741 0)
(0.99915 0.0433137 0)
(1.00689 0.07912 0)
(0.774949 0.0478462 0)
(0.359653 -0.0147074 0)
(1.04694 -0.0719694 0)
(1.08846 -0.0653709 0)
(1.04925 -0.0498292 0)
(1.02547 -0.0364211 0)
(1.0127 -0.0248582 0)
(1.00645 -0.0160323 0)
(1.0034 -0.00982118 0)
(1.00193 -0.00545212 0)
(1.00125 -0.00210002 0)
(1.00118 0.000956552 0)
(1.0015 0.00408229 0)
(1.00252 0.0077919 0)
(1.00465 0.0129347 0)
(1.00902 0.0203521 0)
(1.01804 0.030513 0)
(1.03577 0.043251 0)
(1.06724 0.0571096 0)
(1.09516 0.0701758 0)
(0.846656 0.0553599 0)
(0.219339 -0.00131128 0)
(1.07692 -0.0495461 0)
(1.10047 -0.0478207 0)
(1.06503 -0.0389707 0)
(1.03973 -0.0313237 0)
(1.02311 -0.0240532 0)
(1.01345 -0.0171115 0)
(1.0081 -0.0108557 0)
(1.00543 -0.00551626 0)
(1.0045 -0.000717314 0)
(1.00471 0.00386582 0)
(1.0064 0.00876684 0)
(1.01019 0.0144529 0)
(1.01738 0.0209756 0)
(1.03016 0.0280303 0)
(1.05097 0.0353457 0)
(1.08128 0.0433187 0)
(1.10713 0.0506885 0)
(0.945608 0.0402684 0)
(0.219068 0.00132133 0)
(0.180289 -0.000523757 0)
(1.02331 -0.0327058 0)
(1.10569 -0.0379382 0)
(1.07761 -0.0334094 0)
(1.05213 -0.0279635 0)
(1.03513 -0.0224391 0)
(1.02337 -0.0169582 0)
(1.0155 -0.0115874 0)
(1.01077 -0.00625212 0)
(1.00856 -0.000791656 0)
(1.00927 0.0046488 0)
(1.01259 0.00989867 0)
(1.0187 0.0151034 0)
(1.02837 0.020372 0)
(1.04242 0.0257434 0)
(1.06326 0.0311933 0)
(1.09374 0.0364164 0)
(1.09629 0.0380782 0)
(0.838273 0.0209458 0)
(0.179837 0.00053322 0)
(0.161375 -0.000371801 0)
(0.969392 -0.0207934 0)
(1.10573 -0.0283694 0)
(1.08616 -0.0259412 0)
(1.05904 -0.0223779 0)
(1.04098 -0.0185624 0)
(1.02858 -0.0144403 0)
(1.02025 -0.0101346 0)
(1.01509 -0.0055896 0)
(1.01278 -0.000525196 0)
(1.01337 0.00467097 0)
(1.01692 0.00929212 0)
(1.02346 0.0135265 0)
(1.03358 0.0175243 0)
(1.0485 0.0213263 0)
(1.0705 0.0247622 0)
(1.10111 0.0281568 0)
(1.07615 0.0273122 0)
(0.761131 0.0111173 0)
(0.160717 0.000383613 0)
(0.152986 -8.29849e-05 0)
(0.927804 -0.00974031 0)
(1.09919 -0.0174835 0)
(1.09197 -0.0179483 0)
(1.06462 -0.0167327 0)
(1.04545 -0.0149468 0)
(1.03263 -0.0126917 0)
(1.024 -0.00945482 0)
(1.01859 -0.00529991 0)
(1.01615 -0.000305944 0)
(1.01671 0.00480167 0)
(1.02037 0.00918695 0)
(1.02709 0.0126464 0)
(1.03751 0.0151022 0)
(1.05308 0.0168572 0)
(1.07608 0.0181938 0)
(1.10241 0.0187955 0)
(1.05216 0.0153376 0)
(0.716921 0.00429467 0)
(0.152067 9.63336e-05 0)
(0.150727 1.11899e-05 0)
(0.901202 -0.00452302 0)
(1.08673 -0.0118226 0)
(1.09069 -0.0151891 0)
(1.06517 -0.0159114 0)
(1.04825 -0.0153625 0)
(1.03675 -0.0131713 0)
(1.02891 -0.0098771 0)
(1.02384 -0.00545567 0)
(1.02138 -7.41849e-05 0)
(1.02188 0.00538229 0)
(1.02526 0.0100729 0)
(1.03135 0.013625 0)
(1.04065 0.0160992 0)
(1.05437 0.0170668 0)
(1.07547 0.0166964 0)
(1.09673 0.0148169 0)
(1.02939 0.0090023 0)
(0.695614 0.00169917 0)
(0.149493 4.69684e-06 0)
(0.150366 2.98462e-05 0)
(0.883553 -0.00221935 0)
(1.06959 -0.00873978 0)
(1.08368 -0.0143208 0)
(1.06419 -0.0165923 0)
(1.04959 -0.0163743 0)
(1.03934 -0.0143341 0)
(1.03223 -0.0107275 0)
(1.02743 -0.00580321 0)
(1.02484 0.000236139 0)
(1.02526 0.00638208 0)
(1.02839 0.0115342 0)
(1.03392 0.0153582 0)
(1.0422 0.0176961 0)
(1.05406 0.0182958 0)
(1.07194 0.0173644 0)
(1.08432 0.0130528 0)
(1.00806 0.00584418 0)
(0.684354 0.000792722 0)
(0.148742 -1.04224e-05 0)
(0.150371 1.46632e-05 0)
(0.872038 -0.00117969 0)
(1.05211 -0.00602159 0)
(1.07317 -0.0118411 0)
(1.0624 -0.0152136 0)
(1.05147 -0.0153824 0)
(1.0436 -0.0135679 0)
(1.0375 -0.0100937 0)
(1.03306 -0.00530405 0)
(1.03056 0.000760961 0)
(1.03077 0.00697778 0)
(1.03346 0.012017 0)
(1.03812 0.0155889 0)
(1.04459 0.0176667 0)
(1.05373 0.0180525 0)
(1.06526 0.0156745 0)
(1.06873 0.0104026 0)
(0.99016 0.00392477 0)
(0.677627 0.000556366 0)
(0.148262 9.31793e-06 0)
(0.150514 1.901e-05 0)
(0.865604 -0.00037846 0)
(1.03913 -0.00311692 0)
(1.06334 -0.00721766 0)
(1.05845 -0.0100766 0)
(1.052 -0.0109798 0)
(1.04619 -0.0100614 0)
(1.04118 -0.00752213 0)
(1.03721 -0.00357478 0)
(1.03487 0.00162767 0)
(1.03477 0.0069167 0)
(1.03691 0.0109906 0)
(1.04053 0.0135252 0)
(1.0454 0.0144713 0)
(1.05119 0.0137643 0)
(1.05728 0.0110551 0)
(1.05498 0.00670713 0)
(0.97788 0.00232104 0)
(0.673536 0.000358879 0)
(0.147806 9.6734e-06 0)
(0.150876 2.43827e-05 0)
(0.862914 9.0961e-05 0)
(1.03193 -0.00111891 0)
(1.05688 -0.0033461 0)
(1.05535 -0.00520385 0)
(1.05177 -0.00603507 0)
(1.04796 -0.00566419 0)
(1.04419 -0.00402513 0)
(1.04086 -0.00114818 0)
(1.03866 0.00273069 0)
(1.0382 0.00659452 0)
(1.03957 0.00930121 0)
(1.04193 0.0105951 0)
(1.04499 0.0105586 0)
(1.04818 0.00931252 0)
(1.0509 0.00701893 0)
(1.04581 0.00404721 0)
(0.970721 0.00144904 0)
(0.671047 0.000294915 0)
(0.147428 1.28607e-05 0)
(0.151399 2.72517e-05 0)
(0.862451 0.000392344 0)
(1.02875 5.78585e-05 0)
(1.05349 -0.000885915 0)
(1.05343 -0.00176968 0)
(1.05143 -0.00218271 0)
(1.04894 -0.00190459 0)
(1.04614 -0.000775699 0)
(1.04339 0.00125014 0)
(1.04124 0.00396099 0)
(1.04035 0.00649835 0)
(1.0409 0.00795815 0)
(1.04211 0.00834654 0)
(1.04373 0.00776243 0)
(1.04528 0.00643783 0)
(1.04629 0.00464997 0)
(1.0402 0.00270547 0)
(0.966494 0.00112456 0)
(0.669166 0.000312938 0)
(0.146999 1.82514e-05 0)
(0.15206 3.28873e-05 0)
(0.86308 0.000596694 0)
(1.02791 0.00075513 0)
(1.05228 0.000595012 0)
(1.05277 0.00043675 0)
(1.05153 0.000507123 0)
(1.04978 0.000959579 0)
(1.04761 0.0019251 0)
(1.04521 0.00345011 0)
(1.04298 0.00533602 0)
(1.0416 0.00689432 0)
(1.04129 0.00756555 0)
(1.04165 0.0072276 0)
(1.04223 0.00633265 0)
(1.0428 0.00506089 0)
(1.043 0.00362811 0)
(1.03656 0.00223347 0)
(0.963553 0.00110031 0)
(0.667352 0.000376083 0)
(0.146453 2.52715e-05 0)
(0.152874 4.03424e-05 0)
(0.864635 0.000812158 0)
(1.02843 0.00130499 0)
(1.05246 0.00162861 0)
(1.05312 0.00198333 0)
(1.05218 0.00248868 0)
(1.05077 0.00322464 0)
(1.04888 0.0042553 0)
(1.04658 0.0055676 0)
(1.04413 0.00694883 0)
(1.0422 0.00781034 0)
(1.04116 0.00778288 0)
(1.0407 0.00710892 0)
(1.04059 0.00599299 0)
(1.04057 0.00470989 0)
(1.04035 0.00342137 0)
(1.03375 0.00223647 0)
(0.960993 0.00123649 0)
(0.665314 0.000468279 0)
(0.145746 3.35039e-05 0)
(0.153901 5.04755e-05 0)
(0.866908 0.00105988 0)
(1.02989 0.00183499 0)
(1.05361 0.00252927 0)
(1.05428 0.00329413 0)
(1.05341 0.00419809 0)
(1.05206 0.00526846 0)
(1.05018 0.00649989 0)
(1.04774 0.00780509 0)
(1.04488 0.00891613 0)
(1.04229 0.00929242 0)
(1.04053 0.00878091 0)
(1.03943 0.00773204 0)
(1.03877 0.00640604 0)
(1.03835 0.00501656 0)
(1.03787 0.00369934 0)
(1.03114 0.00251723 0)
(0.958344 0.00147999 0)
(0.66287 0.000587645 0)
(0.144841 4.31462e-05 0)
(0.155203 6.36755e-05 0)
(0.869966 0.00136496 0)
(1.03217 0.00243649 0)
(1.05555 0.00347711 0)
(1.05615 0.0046288 0)
(1.05521 0.00593488 0)
(1.05374 0.00738695 0)
(1.05165 0.00891902 0)
(1.04885 0.0103626 0)
(1.04539 0.0113656 0)
(1.04201 0.0113891 0)
(1.03951 0.0104621 0)
(1.03779 0.00903339 0)
(1.03666 0.00741308 0)
(1.03592 0.00580625 0)
(1.03523 0.00432476 0)
(1.02834 0.00300755 0)
(0.955313 0.0018219 0)
(0.659857 0.000738843 0)
(0.143694 5.47742e-05 0)
(0.156866 8.14172e-05 0)
(0.873954 0.00175686 0)
(1.03528 0.00317765 0)
(1.05829 0.00459498 0)
(1.05875 0.00616158 0)
(1.05763 0.00791176 0)
(1.05589 0.00981365 0)
(1.0534 0.0117427 0)
(1.05002 0.0134412 0)
(1.04572 0.014448 0)
(1.0414 0.0141842 0)
(1.03806 0.0128362 0)
(1.0357 0.0109698 0)
(1.03411 0.00896081 0)
(1.03306 0.00702259 0)
(1.03218 0.00525975 0)
(1.0251 0.00369692 0)
(0.951666 0.00226996 0)
(0.656096 0.000928629 0)
(0.142247 6.90213e-05 0)
(0.159009 0.000105847 0)
(0.879107 0.00227141 0)
(1.03936 0.00412947 0)
(1.06191 0.00598765 0)
(1.06218 0.00802726 0)
(1.06077 0.0102979 0)
(1.05861 0.0127509 0)
(1.05552 0.0151912 0)
(1.05131 0.0172532 0)
(1.04593 0.0183417 0)
(1.04043 0.0178017 0)
(1.03611 0.0159753 0)
(1.03305 0.0135803 0)
(1.03096 0.0110699 0)
(1.02959 0.0086831 0)
(1.02849 0.0065244 0)
(1.02119 0.00460755 0)
(0.947163 0.00284341 0)
(0.651379 0.00116698 0)
(0.14043 8.6856e-05 0)
(0.161797 0.000140486 0)
(0.885778 0.00295917 0)
(1.04466 0.00537323 0)
(1.06666 0.00774653 0)
(1.06665 0.0103359 0)
(1.06481 0.0132469 0)
(1.06204 0.0164023 0)
(1.0581 0.0195024 0)
(1.05278 0.0220412 0)
(1.04599 0.0232653 0)
(1.03905 0.022416 0)
(1.03358 0.0200104 0)
(1.02968 0.0169615 0)
(1.02703 0.0138166 0)
(1.02528 0.0108544 0)
(1.02395 0.00818052 0)
(1.01635 0.00579189 0)
(0.941527 0.00357716 0)
(0.645435 0.00146951 0)
(0.138152 0.000110071 0)
(0.165463 0.000189386 0)
(0.894484 0.00388529 0)
(1.05162 0.00699793 0)
(1.07298 0.00996281 0)
(1.07253 0.0132216 0)
(1.07008 0.0169882 0)
(1.06642 0.0210616 0)
(1.06132 0.0249828 0)
(1.05452 0.0281116 0)
(1.04592 0.029495 0)
(1.03719 0.0282569 0)
(1.03031 0.0251296 0)
(1.02542 0.0212646 0)
(1.02208 0.0173269 0)
(1.0199 0.0136494 0)
(1.01829 0.010334 0)
(1.01031 0.00734191 0)
(0.934413 0.00452966 0)
(0.63791 0.00185942 0)
(0.135296 0.000141352 0)
(0.170343 0.000256758 0)
(0.905936 0.00513405 0)
(1.06086 0.00913967 0)
(1.08139 0.0128266 0)
(1.08028 0.0169634 0)
(1.07699 0.0219044 0)
(1.07212 0.027159 0)
(1.06544 0.0320745 0)
(1.05667 0.0358725 0)
(1.04575 0.0373807 0)
(1.03479 0.035613 0)
(1.0262 0.0315726 0)
(1.02009 0.0266882 0)
(1.01591 0.0217652 0)
(1.01316 0.0172106 0)
(1.01119 0.0131229 0)
(1.00273 0.00939109 0)
(0.925422 0.0057936 0)
(0.628362 0.00236885 0)
(0.131716 0.000183394 0)
(0.176958 0.000354103 0)
(0.921023 0.0068927 0)
(1.07292 0.0121129 0)
(1.09242 0.0167637 0)
(1.09042 0.0221284 0)
(1.08587 0.0285291 0)
(1.07943 0.0352203 0)
(1.0707 0.0413283 0)
(1.05935 0.0458156 0)
(1.04549 0.0473265 0)
(1.03176 0.0448079 0)
(1.02107 0.0396066 0)
(1.01347 0.0334553 0)
(1.00824 0.0273097 0)
(1.00476 0.0216734 0)
(1.00228 0.0166605 0)
(0.993229 0.0120569 0)
(0.914164 0.00747092 0)
(0.616343 0.00303015 0)
(0.127251 0.000235032 0)
(0.18613 0.000513372 0)
(0.940887 0.00960071 0)
(1.08851 0.0164412 0)
(1.10663 0.0223714 0)
(1.10338 0.0294128 0)
(1.09722 0.0376965 0)
(1.08859 0.0460377 0)
(1.07704 0.0533519 0)
(1.06241 0.0584475 0)
(1.04492 0.0597374 0)
(1.02787 0.0561624 0)
(1.01469 0.0495012 0)
(1.00528 0.0418019 0)
(0.998745 0.034154 0)
(0.994321 0.0271632 0)
(0.991164 0.0209999 0)
(0.981375 0.0153587 0)
(0.900268 0.00960056 0)
(0.601494 0.00386599 0)
(0.121722 0.000292799 0)
(0.199169 0.000792739 0)
(0.967438 0.0140045 0)
(1.10906 0.0229457 0)
(1.12508 0.0306621 0)
(1.11982 0.0399385 0)
(1.1111 0.0504067 0)
(1.09927 0.0604763 0)
(1.08402 0.0689371 0)
(1.06533 0.0743794 0)
(1.04357 0.0750495 0)
(1.02272 0.0700201 0)
(1.00667 0.0615759 0)
(0.995151 0.052054 0)
(0.987046 0.0426315 0)
(0.981453 0.0339844 0)
(0.97742 0.026367 0)
(0.966697 0.0194276 0)
(0.883134 0.0122735 0)
(0.583283 0.00494669 0)
(0.114916 0.000359525 0)
(0.218327 0.0012993 0)
(1.00378 0.0213387 0)
(1.13655 0.0332152 0)
(1.14922 0.043567 0)
(1.14055 0.0556916 0)
(1.12781 0.0685181 0)
(1.11141 0.0801486 0)
(1.09129 0.089273 0)
(1.06763 0.0943958 0)
(1.04096 0.0937644 0)
(1.01591 0.0867527 0)
(0.996684 0.0762006 0)
(0.982764 0.0646424 0)
(0.972779 0.0532657 0)
(0.965705 0.0427583 0)
(0.960495 0.0334351 0)
(0.948479 0.0249136 0)
(0.861661 0.0159492 0)
(0.560775 0.00645325 0)
(0.106519 0.000449884 0)
(0.247181 0.00247095 0)
(1.05552 0.035004 0)
(1.17316 0.0507882 0)
(1.18017 0.0645489 0)
(1.16581 0.0797066 0)
(1.14713 0.0943674 0)
(1.12463 0.106672 0)
(1.09843 0.115385 0)
(1.06895 0.119127 0)
(1.03684 0.116268 0)
(1.00726 0.106628 0)
(0.984636 0.093637 0)
(0.968049 0.0799132 0)
(0.955835 0.0665489 0)
(0.946833 0.054174 0)
(0.939871 0.0430675 0)
(0.925827 0.0329028 0)
(0.834363 0.0216071 0)
(0.532678 0.00862557 0)
(0.0967154 0.000513948 0)
(0.287986 0.00985082 -1.2029e-20)
(1.12422 0.0634712 -8.95843e-21)
(1.21856 0.0824675 2.37026e-21)
(1.21535 0.0999151 0)
(1.19297 0.116219 -5.89315e-36)
(1.16678 0.130548 2.43151e-22)
(1.13713 0.141653 -1.38753e-21)
(1.10421 0.148496 0)
(1.06842 0.149824 4.97607e-35)
(1.03036 0.144064 -3.72586e-21)
(0.995782 0.131487 0)
(0.969233 0.116029 -5.31694e-21)
(0.949374 0.100286 -1.62604e-20)
(0.934213 0.0852231 -7.87048e-21)
(0.922394 0.0714588 -2.47922e-21)
(0.912528 0.0592544 -1.50299e-21)
(0.895273 0.0480841 0)
(0.798627 0.0346346 1.08562e-21)
(0.496731 0.0176387 1.28692e-21)
(0.0869937 0.00272501 2.29077e-20)
(0.312064 0.0275132 -2.3696e-20)
(1.17928 0.110825 5.13099e-22)
(1.26014 0.132314 -1.25008e-21)
(1.2473 0.148876 0)
(1.2171 0.163437 1.6877e-21)
(1.18354 0.175902 6.92715e-22)
(1.14698 0.185055 -9.31827e-22)
(1.1074 0.189734 -6.48452e-21)
(1.06506 0.188665 0)
(1.0204 0.180325 1.57402e-20)
(0.979681 0.165378 1.7366e-20)
(0.947923 0.148167 5.57125e-21)
(0.923482 0.131235 2.20199e-20)
(0.904076 0.115371 3.25143e-20)
(0.888141 0.101098 0)
(0.874062 0.0888348 4.85405e-20)
(0.851787 0.0779125 7.1353e-20)
(0.75781 0.0626769 7.98721e-20)
(0.473014 0.038851 -9.33795e-20)
(0.0849393 0.00734591 -1.69737e-21)
(0.303846 0.0443387 0)
(1.21053 0.171576 -7.15737e-21)
(1.29142 0.19502 0)
(1.27228 0.207791 1.09784e-20)
(1.23585 0.218631 0)
(1.19607 0.22751 5.00158e-21)
(1.15333 0.233337 1.0903e-21)
(1.10771 0.234864 -9.69948e-21)
(1.0594 0.230724 -1.53355e-21)
(1.00876 0.219411 7.59339e-21)
(0.96258 0.202105 4.0294e-20)
(0.926345 0.183535 -2.5311e-22)
(0.898181 0.166153 -1.65024e-20)
(0.875549 0.1506 -3.20272e-20)
(0.856823 0.1372 3.89515e-20)
(0.840448 0.126135 -7.00157e-20)
(0.817837 0.116657 -9.6209e-21)
(0.733914 0.100439 0)
(0.474839 0.0661725 3.37049e-22)
(0.0925498 0.0133688 0)
(0.291499 0.0586791 -1.81752e-19)
(1.22398 0.235353 7.426e-20)
(1.31092 0.262087 3.90374e-20)
(1.28818 0.271526 -7.30626e-21)
(1.24754 0.278072 1.11309e-20)
(1.20316 0.282706 -1.24992e-20)
(1.15561 0.284556 1.31338e-21)
(1.10509 0.282377 0)
(1.05177 0.274757 -2.97592e-20)
(0.995991 0.260215 0)
(0.945338 0.240458 -2.04371e-20)
(0.905782 0.220535 -2.87885e-20)
(0.875217 0.202717 -1.84027e-20)
(0.8509 0.187326 -2.37517e-20)
(0.831077 0.174434 0)
(0.814112 0.164126 0)
(0.792786 0.155399 -6.42498e-20)
(0.717336 0.138148 1.2858e-20)
(0.473354 0.0924568 -7.53714e-21)
(0.095132 0.0188995 -8.83557e-21)
(0.280188 0.0714029 1.33961e-19)
(1.22588 0.298347 0)
(1.32082 0.329585 -1.09348e-19)
(1.29613 0.336039 -2.77097e-20)
(1.25275 0.338493 -2.07615e-20)
(1.20516 0.339049 0)
(1.15403 0.336911 -2.2644e-21)
(1.09959 0.330902 8.46459e-21)
(1.04222 0.319651 1.29458e-20)
(0.982331 0.301689 3.7838e-20)
(0.928079 0.279265 0)
(0.885963 0.257696 -6.23834e-20)
(0.853771 0.239007 -3.99095e-20)
(0.828485 0.223307 -2.40446e-20)
(0.808162 0.210452 1.57697e-19)
(0.791181 0.200327 1.93475e-20)
(0.771169 0.191609 9.26738e-20)
(0.701289 0.172375 -4.49616e-19)
(0.466883 0.11566 2.68469e-19)
(0.0949196 0.0237285 -3.24581e-19)
(0.270898 0.0828756 1.41127e-19)
(1.22047 0.358419 -2.59772e-20)
(1.32352 0.395477 1.92679e-20)
(1.29787 0.399447 5.20244e-20)
(1.25255 0.398159 3.16537e-20)
(1.20264 0.39491 1.60207e-21)
(1.14886 0.388994 1.9691e-21)
(1.0914 0.379261 6.16617e-21)
(1.03068 0.364428 -2.81408e-20)
(0.967244 0.343025 0)
(0.909956 0.317681 -2.6753e-20)
(0.865886 0.294066 -1.47368e-21)
(0.832616 0.274054 -4.45898e-20)
(0.806874 0.257545 0)
(0.786555 0.244175 -3.43456e-20)
(0.769944 0.233643 -8.35119e-20)
(0.750962 0.224358 2.31387e-19)
(0.684442 0.202669 -2.31682e-19)
(0.45728 0.135862 3.30164e-19)
(0.0932131 0.0278481 -3.44236e-19)
(0.263596 0.0934856 -4.64949e-22)
(1.21067 0.415103 3.17625e-20)
(1.32095 0.458788 9.23806e-20)
(1.29495 0.460725 -3.19666e-20)
(1.24832 0.456125 1.81521e-20)
(1.19671 0.449421 0)
(1.14082 0.439988 8.00592e-21)
(1.08091 0.426771 -4.61392e-21)
(1.01744 0.408478 -1.27556e-20)
(0.951083 0.383643 0)
(0.891292 0.355213 -2.59754e-20)
(0.845625 0.329242 -3.65572e-20)
(0.81156 0.307523 4.86969e-20)
(0.785585 0.289761 -3.11866e-20)
(0.765398 0.275445 -1.51087e-19)
(0.749181 0.264107 9.29182e-20)
(0.730988 0.253913 2.95004e-20)
(0.666801 0.229645 0)
(0.445948 0.153633 -3.2018e-19)
(0.0907008 0.0313553 -1.17717e-20)
(0.257991 0.103612 2.30479e-20)
(1.19837 0.468308 -3.64966e-20)
(1.31444 0.518969 -5.04093e-20)
(1.28844 0.519293 -9.82817e-20)
(1.24093 0.511785 8.84339e-20)
(1.18809 0.501989 -4.67963e-20)
(1.13064 0.489374 -1.71011e-20)
(1.06885 0.47295 -6.35577e-21)
(1.00312 0.451432 1.26148e-20)
(0.934136 0.423243 -9.14169e-20)
(0.872007 0.391654 -3.19571e-20)
(0.824878 0.363073 0)
(0.790128 0.339288 5.32542e-20)
(0.764016 0.319903 6.58885e-20)
(0.744034 0.304302 8.11386e-20)
(0.728236 0.291877 -1.01447e-19)
(0.710718 0.280534 -3.05869e-20)
(0.648358 0.253721 3.64123e-20)
(0.433286 0.169112 0)
(0.0876242 0.0342578 -2.56931e-20)
(0.253721 0.11338 -2.66769e-19)
(1.18489 0.518205 1.67491e-19)
(1.30507 0.575786 5.53131e-20)
(1.27926 0.574796 -7.51011e-20)
(1.23122 0.56475 5.30199e-20)
(1.17756 0.552208 -3.78154e-21)
(1.11894 0.536783 1.69149e-20)
(1.05557 0.517495 -2.7482e-21)
(0.987876 0.493047 -2.25496e-20)
(0.916518 0.461684 1.23119e-22)
(0.85215 0.42692 -9.50382e-20)
(0.803566 0.395522 9.31594e-20)
(0.768128 0.369363 -5.97616e-20)
(0.74189 0.348025 7.44021e-20)
(0.722133 0.330838 0)
(0.706766 0.317101 -5.52088e-20)
(0.689878 0.304431 -1.34231e-21)
(0.629134 0.274893 -1.59464e-19)
(0.419438 0.182401 -2.36017e-20)
(0.0840128 0.0365208 0)
(0.250483 0.122848 0)
(1.17101 0.564996 1.80661e-19)
(1.29372 0.629145 1.29103e-19)
(1.26817 0.627073 8.48047e-20)
(1.21981 0.614805 5.11004e-20)
(1.16559 0.599868 0)
(1.10612 0.582001 1.6507e-20)
(1.04149 0.560231 -1.27802e-21)
(0.972061 0.533173 4.73444e-20)
(0.898524 0.498935 -1.10886e-20)
(0.831861 0.461031 -6.96974e-20)
(0.781684 0.426678 4.66028e-20)
(0.745438 0.397855 -1.99925e-21)
(0.718999 0.37424 7.85353e-20)
(0.699444 0.355197 5.13464e-20)
(0.68453 0.339919 -1.20408e-19)
(0.668241 0.325723 1.46047e-19)
(0.608823 0.293199 4.385e-20)
(0.404284 0.193382 1.81603e-19)
(0.0797864 0.0380174 -4.85878e-19)
(0.248074 0.132098 -6.80898e-20)
(1.15719 0.608833 1.04271e-19)
(1.28102 0.679054 -8.05048e-20)
(1.25577 0.676109 -9.84544e-20)
(1.20727 0.661907 0)
(1.15271 0.644906 4.13732e-20)
(1.09264 0.624945 -4.8001e-20)
(1.02701 0.60104 5.89045e-22)
(0.95601 0.571763 0)
(0.88032 0.53499 -1.71863e-19)
(0.811288 0.494103 1.90113e-19)
(0.759261 0.456715 0)
(0.721997 0.424982 7.1097e-20)
(0.695213 0.398759 -2.05652e-21)
(0.675803 0.37753 -1.63202e-19)
(0.661341 0.360448 6.41101e-20)
(0.645635 0.344522 0)
(0.587374 0.308768 2.37995e-19)
(0.387722 0.202034 0)
(0.0750292 0.0388203 -2.32311e-19)
(0.246236 0.141148 7.57139e-20)
(1.14368 0.649912 1.19169e-19)
(1.26752 0.725607 -8.42515e-20)
(1.24255 0.72195 0)
(1.19404 0.706084 7.05918e-20)
(1.13934 0.687319 0)
(1.07886 0.665578 6.33867e-20)
(1.01241 0.639875 6.92486e-21)
(0.940011 0.608773 4.64446e-21)
(0.862118 0.569859 -8.47523e-20)
(0.790567 0.526292 1.83951e-20)
(0.736401 0.485868 0)
(0.697791 0.451025 -1.51779e-19)
(0.67042 0.42186 2.14483e-21)
(0.651059 0.398049 0)
(0.636982 0.378821 2.46228e-21)
(0.621803 0.36089 2.16483e-19)
(0.564568 0.321643 -2.0956e-19)
(0.369666 0.208267 6.18793e-20)
(0.0696364 0.0388723 0)
(0.244584 0.149824 0)
(1.1305 0.688439 1.32977e-19)
(1.25366 0.768925 9.87524e-20)
(1.22883 0.76472 -2.06913e-21)
(1.18044 0.747403 4.41354e-20)
(1.12575 0.727127 9.81879e-20)
(1.06504 0.703882 -2.05836e-20)
(0.997954 0.676707 2.63638e-21)
(0.924312 0.644162 2.77897e-20)
(0.844184 0.603589 -1.31528e-19)
(0.769867 0.557715 -3.25672e-21)
(0.713256 0.514402 -6.19068e-20)
(0.672812 0.476316 2.49682e-19)
(0.644461 0.443894 -2.61403e-21)
(0.624864 0.417058 -1.29972e-19)
(0.611209 0.395345 -2.37323e-19)
(0.596588 0.374967 0)
(0.540265 0.331866 0)
(0.349888 0.211951 6.85966e-20)
(0.0635951 0.0380359 -4.00386e-20)
(0.243348 0.158213 9.37127e-20)
(1.11778 0.724306 -2.90148e-19)
(1.23963 0.809199 -1.05581e-19)
(1.2149 0.804557 0)
(1.16675 0.78597 -1.45013e-21)
(1.1122 0.764392 1.17953e-19)
(1.05142 0.739883 -6.9015e-20)
(0.983885 0.711547 -3.10309e-20)
(0.909123 0.677936 2.77119e-20)
(0.826843 0.636155 -1.00692e-19)
(0.749504 0.588418 -1.60984e-19)
(0.689962 0.542543 1.65293e-19)
(0.647106 0.501155 0)
(0.61712 0.465192 -5.87818e-20)
(0.596966 0.434829 -1.43337e-19)
(0.583815 0.410224 -1.73052e-19)
(0.569919 0.386875 -2.10568e-19)
(0.514055 0.339311 6.32967e-20)
(0.328053 0.212786 -3.71287e-20)
(0.056901 0.0362517 5.71512e-22)
(0.242035 0.166201 0)
(1.10563 0.757777 0)
(1.22559 0.846668 2.29706e-21)
(1.20099 0.8416 0)
(1.15314 0.8219 -1.6586e-19)
(1.09884 0.799193 -1.04198e-19)
(1.03815 0.773618 0)
(0.970344 0.744411 -7.55792e-21)
(0.894653 0.710107 3.26605e-20)
(0.810316 0.667585 -2.30986e-19)
(0.729718 0.618594 0)
(0.666688 0.57046 -1.06179e-19)
(0.62087 0.525721 -3.16352e-21)
(0.588569 0.485958 -2.61738e-21)
(0.567812 0.451894 1.54e-19)
(0.554725 0.423506 -3.06704e-22)
(0.541113 0.396766 -4.60234e-19)
(0.485243 0.343929 1.39056e-19)
(0.303827 0.210416 4.1404e-20)
(0.0494545 0.033395 0)
(0.240668 0.173746 -3.43335e-19)
(1.09397 0.789065 -1.77439e-19)
(1.21165 0.881478 -2.63684e-19)
(1.18723 0.875995 3.6798e-19)
(1.13978 0.855293 -3.10822e-19)
(1.08582 0.831609 0)
(1.02534 0.805147 -5.9018e-20)
(0.957444 0.775318 1.43457e-20)
(0.881017 0.740684 3.67857e-21)
(0.7947 0.697948 1.83367e-20)
(0.710644 0.648324 2.01662e-19)
(0.643632 0.59827 -3.62755e-20)
(0.594475 0.550393 -1.5529e-19)
(0.559584 0.50687 -7.06263e-20)
(0.537388 0.468442 8.6234e-20)
(0.52374 0.435675 -2.49048e-22)
(0.509766 0.404449 1.27427e-19)
(0.45351 0.34519 -3.03162e-19)
(0.276575 0.20438 3.63306e-19)
(0.0413126 0.0294985 5.24545e-20)
(0.239116 0.180825 1.25798e-19)
(1.0826 0.818323 -9.6764e-20)
(1.19795 0.913779 5.53633e-21)
(1.17371 0.907891 2.07511e-19)
(1.12674 0.88628 7.24628e-20)
(1.07322 0.861731 2.0825e-19)
(1.01309 0.834536 -2.59606e-20)
(0.945263 0.80429 6.88696e-20)
(0.868267 0.76966 -1.26198e-20)
(0.780116 0.727236 -1.24865e-19)
(0.692557 0.677526 0)
(0.621229 0.626157 -1.63959e-19)
(0.56809 0.575834 2.26231e-19)
(0.529954 0.52853 0)
(0.504634 0.484951 -1.85143e-19)
(0.489852 0.447112 1.15573e-19)
(0.475569 0.410684 -1.38512e-19)
(0.418442 0.343218 -1.68092e-19)
(0.245653 0.194098 -2.97999e-19)
(0.0322962 0.024388 -2.32708e-19)
(0.237647 0.187559 -1.37947e-19)
(1.07142 0.845596 1.03576e-19)
(1.18456 0.943728 2.45068e-19)
(1.16054 0.937423 2.84945e-19)
(1.11409 0.914977 -1.51868e-19)
(1.06112 0.889662 1.43601e-19)
(1.00146 0.861853 -8.10629e-20)
(0.933859 0.831366 8.51401e-20)
(0.856459 0.797038 -9.08343e-22)
(0.766692 0.755393 1.18119e-19)
(0.675811 0.706183 4.28185e-19)
(0.59975 0.654395 0)
(0.541376 0.602401 0)
(0.498281 0.551138 -8.18406e-20)
(0.469575 0.50265 0)
(0.452377 0.457438 2.52888e-19)
(0.437707 0.41364 3.0517e-19)
(0.379725 0.336763 0)
(0.211728 0.179194 0)
(0.0229669 0.0183282 2.56161e-19)
(0.23593 0.193679 1.51781e-19)
(1.0605 0.871205 1.23572e-19)
(1.17152 0.971475 1.75918e-19)
(1.14773 0.964738 -2.53813e-19)
(1.10187 0.941506 -1.69078e-19)
(1.04954 0.915501 -1.9011e-19)
(0.990493 0.88719 1.20317e-19)
(0.923271 0.856628 6.7203e-22)
(0.845669 0.822829 -4.725e-21)
(0.754519 0.782388 -6.06968e-21)
(0.660394 0.734429 2.16883e-19)
(0.579434 0.682902 0)
(0.514822 0.629943 2.29081e-19)
(0.465073 0.575585 1.72544e-19)
(0.431295 0.521493 4.43951e-19)
(0.410106 0.469178 1.36612e-19)
(0.394112 0.414026 -1.70803e-19)
(0.336405 0.323054 -1.01304e-19)
(0.177073 0.158341 0)
(0.0150234 0.0120959 2.81449e-19)
(0.234435 0.199636 -3.32959e-19)
(1.04981 0.895027 0)
(1.15882 0.997141 1.95939e-19)
(1.13533 0.989951 -2.07603e-19)
(1.09011 0.965983 1.9092e-19)
(1.0385 0.939353 2.77047e-19)
(0.980181 0.910628 -2.78531e-19)
(0.913493 0.880171 2.91955e-21)
(0.835943 0.847101 0)
(0.743622 0.808187 -1.08173e-19)
(0.64624 0.762124 -4.48919e-19)
(0.560432 0.711917 2.22862e-20)
(0.489649 0.658463 3.11213e-19)
(0.431823 0.601471 0)
(0.390916 0.544544 2.99042e-19)
(0.362667 0.482214 0)
(0.340682 0.411288 0)
(0.285282 0.29552 -1.14264e-19)
(0.150469 0.123183 0)
(0.0265338 0.0133315 7.65561e-20)
(0.232698 0.204918 -3.62952e-19)
(1.03938 0.917239 0)
(1.14646 1.02093 3.16847e-19)
(1.12328 1.01329 0)
(1.07876 0.988659 -1.03387e-19)
(1.02792 0.96149 0)
(0.970421 0.932464 -2.06763e-20)
(0.904414 0.902268 -1.48878e-20)
(0.827137 0.87016 -1.09389e-21)
(0.733824 0.833143 -1.04746e-19)
(0.63339 0.789552 1.16496e-20)
(0.542778 0.741285 1.84797e-19)
(0.465728 0.688584 3.01099e-19)
(0.398845 0.631963 4.32243e-20)
(0.347929 0.572672 2.32998e-19)
(0.307998 0.504073 0)
(0.267493 0.410076 3.74569e-19)
(0.207515 0.244647 -2.26329e-19)
(0.0852256 0.100707 2.6275e-19)
(-0.0634854 0.367949 -3.10198e-19)
(0.231016 0.209924 2.95364e-19)
(1.02904 0.937945 4.6558e-19)
(1.13433 1.04316 0)
(1.11146 1.03513 4.2623e-21)
(1.06765 1.01002 2.80259e-19)
(1.01757 0.982476 -5.3466e-19)
(0.960979 0.953348 -1.22555e-19)
(0.895775 0.923663 0)
(0.818943 0.892918 -3.02885e-20)
(0.724889 0.858456 -2.81023e-21)
(0.621512 0.818238 0)
(0.525767 0.773101 0)
(0.442389 0.722322 2.63454e-19)
(0.367021 0.666213 -1.34732e-19)
(0.301844 0.611565 -2.3068e-19)
(0.245709 0.541539 0)
(0.159762 0.420902 1.89919e-19)
(0.0521228 0.481131 -2.28447e-19)
(0.0521763 1.67426 -1.20653e-19)
(0.0923976 2.70377 -1.53931e-19)
(0.229273 0.214048 -2.1589e-19)
(1.019 0.957329 -5.8589e-19)
(1.12242 1.06383 1.81845e-19)
(1.09987 1.05537 1.75134e-19)
(1.0568 1.02989 0)
(1.00747 1.00208 -3.82291e-19)
(0.951981 0.973002 -2.04773e-19)
(0.88765 0.943975 9.85001e-21)
(0.811463 0.914861 -4.08011e-21)
(0.717033 0.883516 7.70609e-20)
(0.61104 0.847566 1.99183e-19)
(0.510338 0.806874 1.89384e-19)
(0.419833 0.758966 2.5758e-19)
(0.336839 0.70516 -3.05874e-19)
(0.260035 0.659982 -3.38639e-19)
(0.185297 0.598635 0)
(0.0941808 0.826447 0)
(0.151846 2.37802 9.88783e-20)
(0.160861 3.13476 0)
(0.160789 3.36062 2.28884e-19)
(0.229893 0.218247 0)
(1.00946 0.975387 0)
(1.11053 1.08281 0)
(1.08828 1.07381 4.85892e-20)
(1.04594 1.0481 2.49845e-19)
(0.997405 1.02021 -2.91183e-19)
(0.943289 0.991337 -1.46545e-19)
(0.880005 0.963113 1.11629e-20)
(0.804757 0.935881 -7.05686e-20)
(0.710296 0.908163 -1.00532e-20)
(0.601947 0.877301 3.58755e-19)
(0.496613 0.841961 -2.22325e-20)
(0.399558 0.798807 2.87682e-20)
(0.309754 0.743809 4.34232e-20)
(0.230566 0.713654 1.30909e-21)
(0.155379 0.930094 1.51119e-21)
(0.200638 2.47684 -4.68896e-19)
(0.233742 3.25213 -1.78664e-19)
(0.213435 3.42059 8.25504e-20)
(0.191344 3.45114 -8.41325e-20)
(0.144025 0.174329 1.22576e-19)
(0.992279 0.995201 0)
(1.09873 1.10037 -3.55211e-19)
(1.07745 1.09117 -4.53179e-19)
(1.03581 1.06542 5.18504e-19)
(0.988216 1.03747 3.08958e-19)
(0.934824 1.00846 1.7086e-19)
(0.872898 0.981193 -1.88657e-19)
(0.798937 0.956153 7.44726e-20)
(0.70499 0.932568 0)
(0.594835 0.907179 1.53107e-19)
(0.485426 0.877135 -1.40379e-19)
(0.382442 0.841499 0)
(0.286674 0.789834 3.78809e-20)
(0.224512 0.872853 9.05592e-20)
(0.197109 2.06173 -1.12075e-19)
(0.308225 3.28007 1.24056e-19)
(0.28708 3.44431 5.80287e-20)
(0.241515 3.47726 6.6412e-20)
(0.210029 3.49119 7.54504e-20)
(0.270288 0.251555 -2.26462e-19)
(0.970977 0.996213 0)
(1.07726 1.11787 3.60714e-19)
(1.06174 1.11596 4.65679e-19)
(1.01986 1.08978 -5.32017e-19)
(0.973346 1.06199 -3.27195e-19)
(0.921768 1.03419 -2.6262e-19)
(0.861945 1.00833 -1.41221e-20)
(0.789871 0.986885 -1.06536e-19)
(0.696115 0.970531 -1.65475e-21)
(0.582985 0.956353 5.82431e-21)
(0.466136 0.937751 1.08013e-19)
(0.352857 0.917573 2.33484e-20)
(0.266402 0.989806 -3.31663e-20)
(0.310443 1.98783 -7.7654e-20)
(0.397649 3.26837 4.79547e-20)
(0.391377 3.48711 -3.67958e-20)
(0.343469 3.52129 -2.00734e-20)
(0.294195 3.55836 2.2515e-20)
(0.223735 3.54847 1.05479e-21)
(0.2559 0.246174 0)
(0.964826 1.01304 9.48993e-20)
(1.06733 1.13578 -7.13862e-20)
(1.05059 1.13313 -5.17849e-20)
(1.00959 1.10677 -3.48833e-19)
(0.964119 1.07882 3.19305e-19)
(0.913618 1.05095 1.7661e-19)
(0.855628 1.02606 -1.48015e-20)
(0.785549 1.00701 1.31579e-19)
(0.693061 0.99561 -1.37858e-20)
(0.57904 0.989275 -1.98183e-19)
(0.459576 0.979613 1.53007e-20)
(0.348803 0.977578 -2.00821e-20)
(0.318619 1.31543 -2.71291e-20)
(0.437734 2.83963 1.99552e-20)
(0.493184 3.4656 4.68293e-22)
(0.438487 3.5675 -8.06824e-20)
(0.392079 3.59951 -8.58885e-20)
(0.318588 3.63458 1.10772e-19)
(0.242384 3.62432 4.87697e-20)
(0.23747 0.242054 2.32843e-19)
(0.956349 1.03216 6.37379e-19)
(1.05634 1.15475 -2.03302e-19)
(1.03869 1.15115 -1.96441e-19)
(0.998611 1.12429 0)
(0.954348 1.09596 4.65425e-19)
(0.905361 1.068 2.68726e-19)
(0.849695 1.04395 -1.55449e-20)
(0.782426 1.02754 1.3637e-20)
(0.692415 1.02199 6.68249e-20)
(0.578304 1.02391 -6.04389e-20)
(0.456691 1.02327 -1.03396e-19)
(0.357718 1.0629 -1.29688e-19)
(0.407639 1.81208 1.41259e-19)
(0.555298 3.28193 4.87902e-20)
(0.568757 3.55412 0)
(0.498468 3.62389 0)
(0.44483 3.69131 1.04107e-19)
(0.356287 3.76009 0)
(0.259577 3.73118 2.13922e-19)
(0.224212 0.240934 -3.38666e-19)
(0.946033 1.05224 -5.28639e-19)
(1.04343 1.17416 0)
(1.0253 1.1693 4.45837e-21)
(0.986248 1.14166 -3.37585e-19)
(0.943406 1.1127 6.89724e-19)
(0.896444 1.08462 1.80391e-19)
(0.843499 1.06113 -1.90506e-20)
(0.779675 1.0474 1.46234e-19)
(0.693054 1.04796 -7.48595e-21)
(0.579219 1.0592 0)
(0.45629 1.06822 0)
(0.385291 1.20167 -9.30252e-20)
(0.523193 2.37519 2.58697e-20)
(0.664506 3.46332 -2.87363e-20)
(0.637326 3.60773 0)
(0.583973 3.69054 2.37062e-19)