/*--------------------------------*- C++ -*----------------------------------*\
  =========                 |
  \\      /  F ield         | OpenFOAM: The Open Source CFD Toolbox
   \\    /   O peration     | Website:  https://openfoam.org
    \\  /    A nd           | Version:  9
     \\/     M anipulation  |
\*---------------------------------------------------------------------------*/
FoamFile
{
    format      ascii;
    class       volScalarField;
    location    "43";
    object      p;
}
// * * * * * * * * * * * * * * * * * * * * * * * * * * * * * * * * * * * * * //

dimensions      [0 2 -2 0 0 0 0];

internalField   nonuniform List<scalar> 
8800
(
0.91395
0.866162
0.827469
0.798469
0.777598
0.762756
0.752145
0.744648
0.739804
0.737714
0.738943
0.7431
0.749721
0.759017
0.771783
0.789506
0.814277
0.848213
0.890758
0.94946
0.745208
0.752886
0.760353
0.763658
0.76215
0.757064
0.750567
0.744474
0.739727
0.736853
0.736535
0.739003
0.743461
0.749382
0.756133
0.762401
0.766032
0.765291
0.759864
0.751169
0.723624
0.729782
0.733906
0.736843
0.738884
0.739477
0.738355
0.736229
0.734185
0.73324
0.734159
0.736502
0.739271
0.741429
0.742018
0.740805
0.738452
0.735051
0.730489
0.726728
0.717841
0.72049
0.723236
0.725632
0.727257
0.728405
0.729128
0.729221
0.728894
0.7288
0.729504
0.730632
0.731435
0.731471
0.73084
0.729731
0.727902
0.725321
0.722912
0.721408
0.712497
0.713921
0.715694
0.717716
0.719488
0.720813
0.721781
0.722549
0.723125
0.72364
0.724235
0.724679
0.724735
0.724412
0.723687
0.722416
0.720702
0.71884
0.717526
0.716694
0.707469
0.708388
0.709622
0.711178
0.712797
0.714303
0.715563
0.716596
0.717515
0.718349
0.71897
0.719234
0.719138
0.718654
0.717736
0.716507
0.715155
0.713877
0.713047
0.712496
0.702622
0.703291
0.704246
0.705537
0.70693
0.708367
0.709778
0.71106
0.712205
0.713241
0.713978
0.714266
0.714113
0.713545
0.712691
0.711704
0.710659
0.709712
0.709118
0.708714
0.697914
0.69843
0.699206
0.700324
0.701583
0.702933
0.704345
0.705771
0.707136
0.708386
0.709289
0.709658
0.709543
0.709081
0.708415
0.707638
0.70682
0.706108
0.705664
0.705349
0.693277
0.693687
0.694335
0.695328
0.696514
0.697813
0.699219
0.700721
0.702267
0.703759
0.704876
0.705405
0.705453
0.705185
0.70472
0.704136
0.703509
0.70298
0.702644
0.702389
0.688628
0.688962
0.689521
0.690434
0.691569
0.692849
0.694281
0.695868
0.69758
0.699333
0.700731
0.701517
0.701809
0.701764
0.701502
0.701118
0.700665
0.700285
0.700033
0.699822
0.683886
0.684162
0.68466
0.685526
0.68664
0.68794
0.689436
0.691146
0.693061
0.695113
0.696867
0.697989
0.698574
0.69878
0.698736
0.698549
0.698268
0.698016
0.697829
0.697648
0.678968
0.679199
0.679657
0.680508
0.681642
0.683005
0.684608
0.686493
0.688675
0.691097
0.693291
0.694817
0.69574
0.696232
0.696426
0.696433
0.696319
0.696181
0.696048
0.69589
0.673795
0.67399
0.674429
0.675292
0.676488
0.677957
0.679722
0.681853
0.684384
0.687284
0.690011
0.692011
0.693322
0.694131
0.69459
0.694798
0.694852
0.69482
0.694734
0.694592
0.668275
0.66844
0.668875
0.669782
0.671081
0.672705
0.674695
0.677146
0.680121
0.683618
0.686995
0.689562
0.691334
0.69251
0.693263
0.693711
0.693933
0.693999
0.693951
0.693822
0.662303
0.662442
0.662889
0.663867
0.665314
0.667153
0.66944
0.672298
0.675823
0.68005
0.684224
0.687483
0.689809
0.691417
0.692507
0.693213
0.69362
0.693788
0.693778
0.693657
0.655764
0.655878
0.656349
0.657427
0.65907
0.66119
0.663861
0.66724
0.671466
0.676594
0.681739
0.685829
0.688812
0.690927
0.692405
0.693407
0.694025
0.6943
0.694326
0.69421
0.648493
0.648583
0.649092
0.650306
0.6522
0.654676
0.657841
0.661888
0.666991
0.673236
0.67956
0.684646
0.688404
0.691123
0.693072
0.694411
0.695263
0.695653
0.695714
0.695599
0.640279
0.640366
0.640927
0.642288
0.6445
0.647439
0.651232
0.656113
0.662314
0.669944
0.677694
0.683969
0.688652
0.69209
0.694607
0.696355
0.697471
0.697986
0.698084
0.697968
0.630833
0.630897
0.631539
0.633111
0.635738
0.639266
0.643848
0.649776
0.657324
0.66663
0.676126
0.683853
0.689652
0.693945
0.697134
0.699371
0.700807
0.701464
0.701598
0.701476
0.619795
0.619842
0.620577
0.62245
0.625603
0.629891
0.635495
0.64278
0.652063
0.66347
0.675044
0.684447
0.691543
0.696851
0.700814
0.703637
0.705436
0.706248
0.706417
0.706287
0.606631
0.60666
0.607536
0.609805
0.613656
0.618941
0.625872
0.634884
0.646314
0.660266
0.674347
0.685769
0.694403
0.700905
0.705805
0.709316
0.711534
0.712515
0.712717
0.712574
0.590591
0.590611
0.591694
0.59451
0.59931
0.605948
0.614663
0.625945
0.640119
0.657197
0.67423
0.68796
0.698354
0.706229
0.712226
0.716549
0.719246
0.720405
0.720629
0.720466
0.570515
0.570536
0.57195
0.575604
0.581794
0.590361
0.601546
0.615849
0.633499
0.654354
0.674816
0.691163
0.703542
0.712979
0.720173
0.725417
0.728627
0.729955
0.730185
0.729995
0.54458
0.544627
0.546624
0.551665
0.56004
0.571462
0.586135
0.604457
0.62646
0.651804
0.676179
0.695444
0.709988
0.721139
0.729671
0.735908
0.739628
0.741095
0.74131
0.741086
0.509749
0.509908
0.513119
0.520755
0.532876
0.548705
0.568391
0.592029
0.6194
0.649945
0.678631
0.701001
0.717837
0.730773
0.740725
0.747946
0.752102
0.753637
0.75381
0.753551
0.460264
0.461253
0.467707
0.48069
0.499345
0.522009
0.548608
0.578956
0.612652
0.649
0.682291
0.707884
0.72705
0.741809
0.75322
0.761346
0.765798
0.767299
0.767398
0.767103
0.387202
0.394486
0.40951
0.432514
0.460893
0.492703
0.527776
0.565897
0.606667
0.649388
0.687695
0.716832
0.738629
0.755463
0.768505
0.77756
0.782337
0.783858
0.783941
0.783687
0.308395
0.32559
0.349965
0.383607
0.422141
0.463266
0.50693
0.553079
0.601406
0.651313
0.695731
0.729463
0.754734
0.774304
0.789496
0.799794
0.804861
0.80631
0.806436
0.80634
0.242857
0.263104
0.295269
0.337834
0.385308
0.435222
0.487212
0.541226
0.596958
0.65383
0.704072
0.742108
0.770618
0.79269
0.809674
0.820682
0.825835
0.827557
0.827732
0.827697
0.189164
0.211101
0.248744
0.297725
0.352238
0.409534
0.46888
0.530111
0.592794
0.656286
0.712018
0.754042
0.78545
0.809655
0.828082
0.840193
0.84624
0.847821
0.848048
0.84809
0.144359
0.167459
0.208867
0.262925
0.32314
0.386517
0.452164
0.519789
0.58881
0.658443
0.719302
0.764981
0.799001
0.825203
0.845112
0.858114
0.864641
0.866365
0.866683
0.866731
0.10614
0.12992
0.17417
0.23223
0.297211
0.365759
0.436878
0.51017
0.584926
0.660208
0.725786
0.774821
0.811226
0.839153
0.86014
0.87388
0.880805
0.882884
0.88328
0.883341
0.0725092
0.0967558
0.143248
0.204595
0.273578
0.346608
0.422569
0.500951
0.580936
0.661424
0.731384
0.783501
0.822019
0.851291
0.873039
0.887244
0.894556
0.896985
0.89747
0.897531
0.0419918
0.0666528
0.11498
0.17913
0.251559
0.328505
0.408792
0.491799
0.576605
0.661974
0.736075
0.791082
0.831456
0.861792
0.884043
0.89859
0.906183
0.908881
0.909449
0.909504
0.0136581
0.0387066
0.0886389
0.155167
0.230632
0.311045
0.395213
0.482445
0.571754
0.661769
0.739877
0.797656
0.839742
0.870995
0.893638
0.908468
0.916282
0.919133
0.919697
0.91972
-0.0132563
0.0122179
0.063645
0.132257
0.210411
0.293928
0.381601
0.47272
0.566256
0.66075
0.742812
0.80333
0.847052
0.879139
0.902176
0.917178
0.925104
0.928036
0.928617
0.928604
-0.0390659
-0.0131568
0.0393979
0.110085
0.190649
0.276955
0.367811
0.46251
0.560033
0.658884
0.744897
0.808185
0.853565
0.886507
0.90994
0.925112
0.933074
0.935995
0.936605
0.936589
-0.0641502
-0.0376686
0.0159479
0.0884581
0.171181
0.259999
0.353747
0.451749
0.553032
0.656121
0.746121
0.812283
0.859425
0.893316
0.917198
0.932523
0.940496
0.943362
0.943896
0.943838
-0.088599
-0.0617147
-0.00690165
0.0672378
0.151918
0.242999
0.339367
0.440409
0.545221
0.652422
0.746459
0.815659
0.864739
0.899709
0.924101
0.939571
0.947486
0.950252
0.95069
0.950567
-0.112497
-0.0850913
-0.0292488
0.0463728
0.132824
0.225937
0.324666
0.428481
0.536588
0.647746
0.745856
0.818311
0.869573
0.905797
0.930742
0.946292
0.954036
0.956613
0.956937
0.956765
-0.135941
-0.107959
-0.0511193
0.0258624
0.113895
0.208828
0.309674
0.416
0.527139
0.642056
0.744243
0.820192
0.873969
0.911686
0.937233
0.952763
0.960208
0.9625
0.962707
0.962501
-0.158924
-0.130292
-0.0725189
0.00571773
0.0951765
0.191712
0.294442
0.403012
0.516904
0.635329
0.741548
0.821221
0.877909
0.917476
0.943737
0.959084
0.96601
0.967917
0.967994
0.967766
-0.181276
-0.152038
-0.0933754
-0.0140225
0.0767062
0.174659
0.279035
0.389591
0.50594
0.627581
0.737698
0.821285
0.881316
0.923245
0.950491
0.96548
0.971522
0.972848
0.972778
0.972547
-0.202971
-0.173155
-0.11366
-0.0332994
0.0585439
0.157729
0.263544
0.375817
0.494321
0.618839
0.732643
0.820247
0.884041
0.928979
0.957795
0.972435
0.977044
0.97734
0.977039
0.976858
-0.22407
-0.193603
-0.133345
-0.0520769
0.0407552
0.141005
0.248054
0.361788
0.482138
0.609167
0.726341
0.817957
0.885853
0.934487
0.965856
0.980774
0.983552
0.981844
0.980849
0.98093
-0.244404
-0.213363
-0.152372
-0.0702922
0.0233992
0.12457
0.232659
0.347615
0.469504
0.598662
0.718789
0.814258
0.886452
0.939323
0.974443
0.99134
0.993192
0.988675
0.985386
0.984731
-0.264065
-0.232426
-0.170761
-0.0879765
0.0064395
0.108374
0.217298
0.333233
0.456345
0.587247
0.709853
0.808878
0.885505
0.942846
0.982657
1.00405
1.00813
1.00277
0.993387
0.978103
-0.282985
-0.250785
-0.188636
-0.105332
-0.0104178
0.0920782
0.201547
0.31815
0.442116
0.574273
0.698868
0.801002
0.882367
0.944111
0.98832
1.01578
1.02313
1.01173
0.992444
0.978763
-0.300991
-0.268584
-0.205806
-0.122137
-0.0268373
0.0760306
0.185634
0.302694
0.427127
0.560011
0.685946
0.790224
0.876371
0.941983
0.986699
1.01371
1.02469
1.00332
0.934724
0.90346
-0.317426
-0.287065
-0.221945
-0.137841
-0.0420691
0.0607334
0.169866
0.287092
0.411597
0.544591
0.671043
0.776304
0.866298
0.935978
0.973302
0.993341
0.988678
0.936931
0.867592
0.824708
-0.373532
-0.303354
-0.236657
-0.153526
-0.0576997
0.0447346
0.154178
0.271064
0.395161
0.527572
0.653592
0.75874
0.848541
0.925143
0.931255
0.939602
0.897079
0.830015
0.754207
0.711827
-0.335285
-0.319192
-0.258486
-0.174973
-0.08055
0.021738
0.130227
0.246454
0.369492
0.500284
0.623967
0.726969
0.808342
0.887518
0.879388
0.772229
0.669978
0.598751
0.526298
0.558564
-0.366627
-0.337227
-0.275593
-0.192851
-0.09842
0.00366354
0.112417
0.22802
0.349987
0.478916
0.599646
0.698462
0.771652
0.813234
0.767594
0.623917
0.498909
0.409125
0.310934
0.362588
-0.390841
-0.358517
-0.295667
-0.212748
-0.118232
-0.0162294
0.0924606
0.207249
0.327815
0.454306
0.571268
0.66426
0.728326
0.737207
0.634321
0.464232
0.31345
0.195835
0.0649242
0.0986082
-0.414562
-0.380687
-0.316682
-0.232911
-0.138258
-0.0363698
0.0718374
0.185687
0.304664
0.428378
0.540735
0.627093
0.67591
0.654112
0.499312
0.305056
0.115852
-0.0518254
-0.241362
-0.25844
-0.437685
-0.40336
-0.338487
-0.253986
-0.159153
-0.0574465
0.0501614
0.162962
0.280108
0.400691
0.507833
0.587003
0.617697
0.560891
0.371065
0.162292
-0.0543354
-0.243735
-0.487073
-0.792159
-0.46111
-0.426778
-0.361383
-0.27642
-0.181384
-0.0798001
0.0272865
0.139014
0.254236
0.371465
0.473189
0.544058
0.555884
0.448653
0.259756
0.0516734
-0.151725
-0.323514
-0.390788
-0.472647
-0.485786
-0.451392
-0.385717
-0.300552
-0.205451
-0.104075
0.00240298
0.112893
0.225885
0.339256
0.435172
0.495647
0.483452
0.342659
0.16116
-0.0276247
-0.188732
-0.280206
-0.303802
-0.320016
-0.512027
-0.477507
-0.411662
-0.32646
-0.231479
-0.130479
-0.0248426
0.0841148
0.194467
0.303339
0.392936
0.440198
0.4106
0.244231
0.0719221
-0.0914345
-0.216273
-0.254291
-0.267624
-0.268934
-0.540036
-0.505301
-0.439282
-0.354135
-0.259415
-0.159011
-0.0544625
0.0526355
0.159917
0.263702
0.346142
0.379665
0.332376
0.152832
-0.0102506
-0.156058
-0.23128
-0.247932
-0.249471
-0.24936
-0.569875
-0.534837
-0.468599
-0.383573
-0.289269
-0.189652
-0.0864504
0.0184491
0.122248
0.220404
0.294744
0.316573
0.234333
0.0688328
-0.0863439
-0.205688
-0.240396
-0.23987
-0.239597
-0.239096
-0.601264
-0.565942
-0.49951
-0.414681
-0.320945
-0.222336
-0.120762
-0.0184058
0.0815008
0.173535
0.239427
0.244744
0.142692
-0.00964417
-0.146766
-0.221004
-0.23085
-0.233165
-0.233745
-0.233523
-0.633655
-0.598165
-0.531757
-0.447229
-0.354246
-0.256893
-0.157228
-0.0577779
0.0378749
0.123408
0.1807
0.169422
0.0583405
-0.0766618
-0.191964
-0.221291
-0.230232
-0.231531
-0.23105
-0.230592
-0.666598
-0.630977
-0.564897
-0.480821
-0.388818
-0.292986
-0.195547
-0.0993494
-0.00831771
0.0706838
0.117734
0.095867
-0.0245287
-0.133242
-0.220157
-0.242615
-0.23229
-0.231072
-0.231076
-0.230696
-0.699217
-0.66368
-0.598072
-0.514852
-0.424108
-0.33012
-0.235241
-0.142593
-0.0565693
0.0160839
0.0530087
0.0262579
-0.106206
-0.185381
-0.213757
-0.229823
-0.233299
-0.23254
-0.232209
-0.232223
-0.729966
-0.695104
-0.630332
-0.548409
-0.459339
-0.367572
-0.275622
-0.186762
-0.106006
-0.0396305
-0.00801723
-0.0497352
-0.185884
-0.264889
-0.227701
-0.250384
-0.24667
-0.237961
-0.234857
-0.23409
-0.757298
-0.723492
-0.660551
-0.580322
-0.493463
-0.40438
-0.315769
-0.230937
-0.155309
-0.0953873
-0.0655679
-0.123135
-0.264458
-0.411689
-0.382997
-0.33115
-0.287354
-0.263893
-0.253403
-0.249697
-0.779166
-0.747025
-0.686779
-0.609189
-0.525188
-0.439368
-0.354529
-0.273998
-0.203093
-0.149416
-0.121589
-0.176434
-0.299305
-0.586984
-0.691292
-0.466561
-0.358446
-0.321675
-0.303838
-0.295319
-0.793377
-0.763855
-0.707096
-0.633185
-0.553002
-0.471172
-0.390612
-0.314625
-0.248107
-0.199189
-0.171877
-0.183755
-0.20359
-0.280494
-0.379058
-0.344561
-0.351205
-0.351412
-0.346469
-0.345328
-0.797353
-0.771796
-0.719649
-0.650498
-0.575198
-0.498336
-0.422619
-0.351447
-0.288995
-0.243477
-0.20796
-0.153939
0.0375381
0.302268
0.107812
-0.168745
-0.308664
-0.34346
-0.354631
-0.357803
-0.789232
-0.768464
-0.722352
-0.659525
-0.590262
-0.519253
-0.449102
-0.383016
-0.325168
-0.282962
-0.234413
-0.194453
-0.0561123
0.127811
-0.0757537
-0.299702
-0.419448
-0.45636
-0.465569
-0.470167
-0.766687
-0.750705
-0.713421
-0.659042
-0.597123
-0.532783
-0.468636
-0.40783
-0.355705
-0.318401
-0.285669
-0.414564
-0.638486
-0.802912
-0.76321
-0.714495
-0.722457
-0.710635
-0.698693
-0.697768
-0.731748
-0.721213
-0.693264
-0.64908
-0.595593
-0.538392
-0.480117
-0.42434
-0.376796
-0.347404
-0.350316
-0.623119
-1.02765
-1.27052
-1.07515
-1.03344
-0.987207
-0.895192
-0.837324
-0.846106
-0.690319
-0.684317
-0.666313
-0.632081
-0.587224
-0.536395
-0.483098
-0.430237
-0.383811
-0.354302
-0.361049
-0.557935
-0.96183
-1.55818
-1.96905
-2.13264
-2.0217
-1.71694
-1.42453
-1.31942
-0.65118
-0.647732
-0.638309
-0.613128
-0.574837
-0.528639
-0.478007
-0.425207
-0.374284
-0.333948
-0.342874
-0.446687
-0.697442
-0.953098
-1.12232
-1.20981
-1.21373
-1.07173
-0.900989
-0.812271
-0.621329
-0.619249
-0.614587
-0.596877
-0.563284
-0.518579
-0.467473
-0.410551
-0.351737
-0.29583
-0.256273
-0.226733
-0.0961908
0.16034
0.453614
0.720931
0.923216
1.05646
1.14116
1.18164
-0.596873
-0.596067
-0.594829
-0.584859
-0.555492
-0.510199
-0.454969
-0.391389
-0.321138
-0.242158
-0.157981
-0.0474097
0.224413
0.668599
1.13265
1.54598
1.83097
1.99894
2.08076
2.10513
-0.581361
-0.580792
-0.58045
-0.575753
-0.551172
-0.504305
-0.443074
-0.371298
-0.287711
-0.194936
-0.088617
0.0267335
0.334548
0.795067
1.27943
1.71357
2.03204
2.2196
2.30575
2.33073
-0.571542
-0.571119
-0.570715
-0.56962
-0.550222
-0.50188
-0.433904
-0.354138
-0.262368
-0.160391
-0.0531589
0.0469437
0.288283
0.720862
1.16299
1.55566
1.84761
2.01621
2.09182
2.11327
-0.566241
-0.564897
-0.56305
-0.564025
-0.552274
-0.50312
-0.428076
-0.340661
-0.244977
-0.140223
-0.0383532
0.0644879
0.221279
0.593002
0.956963
1.2635
1.4942
1.62657
1.68683
1.70406
-0.574595
-0.572515
-0.571678
-0.574766
-0.564012
-0.50729
-0.422154
-0.32701
-0.228648
-0.12379
-0.0249991
0.0709002
0.194908
0.46248
0.74269
0.965505
1.13531
1.23551
1.28089
1.293
-0.595596
-0.596626
-0.60357
-0.606634
-0.585483
-0.508794
-0.408752
-0.30774
-0.20978
-0.109452
-0.0174444
0.067527
0.152415
0.327419
0.534008
0.700237
0.826863
0.900769
0.933518
0.941784
-0.58913
-0.598137
-0.610681
-0.611286
-0.573418
-0.481729
-0.376279
-0.277843
-0.186925
-0.0973144
-0.0149725
0.0586765
0.128483
0.247992
0.391715
0.509321
0.599736
0.653878
0.677795
0.68141
-0.482094
-0.491848
-0.503639
-0.501881
-0.466574
-0.392813
-0.310886
-0.231378
-0.156907
-0.0826763
-0.0119903
0.0495367
0.109715
0.179467
0.277717
0.361254
0.424227
0.461411
0.47569
0.476807
-0.289641
-0.295535
-0.303265
-0.305402
-0.290332
-0.25725
-0.215336
-0.168614
-0.118621
-0.0637023
-0.0106381
0.0365257
0.0811945
0.122267
0.184143
0.243867
0.288861
0.316261
0.327892
0.328049
-0.100585
-0.103521
-0.109858
-0.118918
-0.126262
-0.127439
-0.119986
-0.103701
-0.0788854
-0.0456809
-0.010675
0.0224706
0.0516231
0.0734155
0.113274
0.154311
0.184473
0.20202
0.207541
0.206663
0.0253978
0.023826
0.0179758
0.00457314
-0.0152197
-0.0341864
-0.0466706
-0.0502487
-0.0439418
-0.0285192
-0.00961195
0.00803995
0.0210891
0.0326382
0.0559903
0.0830901
0.103273
0.113562
0.116474
0.115102
0.0848323
0.0837246
0.0784906
0.0652138
0.0439537
0.0207782
0.00108623
-0.0119527
-0.0170183
-0.0145848
-0.00963324
-0.00680059
-0.00715098
-0.00104389
0.0163668
0.0332046
0.0441805
0.0483562
0.0492366
0.0480232
0.102539
0.101669
0.0975484
0.0868992
0.0693065
0.0487629
0.0290727
0.0129937
0.00210471
-0.00385294
-0.00887907
-0.0165689
-0.0254019
-0.0230579
-0.0104529
0.000304728
0.00538995
0.00634497
0.00576656
0.00487148
0.100338
0.099724
0.0968169
0.089179
0.0761726
0.0600355
0.043296
0.0280752
0.0155766
0.00537964
-0.00549867
-0.0191805
-0.0317951
-0.0292204
-0.0199525
-0.0147909
-0.0135819
-0.0148862
-0.0158451
-0.0164836
0.0903847
0.0899848
0.0880864
0.0830027
0.0740392
0.0623503
0.0494069
0.0366512
0.02495
0.0140044
0.00161573
-0.0140359
-0.0266859
-0.0224562
-0.0154647
-0.0132698
-0.0148754
-0.0172366
-0.0183133
-0.0188374
0.0784324
0.0781813
0.0770217
0.0738722
0.0681018
0.0601896
0.0509598
0.0414091
0.032078
0.0229806
0.0126334
0.000263846
-0.00812348
-0.00233679
0.00145597
0.000743161
-0.00221176
-0.00470372
-0.00563648
-0.0061015
0.0670061
0.0668434
0.066186
0.0644115
0.0610321
0.0561496
0.0501857
0.0438446
0.0377179
0.0322128
0.0272221
0.0220858
0.0205863
0.0264779
0.0274896
0.0243162
0.0208158
0.0187406
0.0179953
0.0175139
0.0571017
0.0570066
0.0566777
0.0558273
0.0541043
0.0514465
0.0481294
0.0446712
0.0418574
0.0408181
0.0429091
0.0469181
0.0520362
0.0573847
0.0560003
0.0521349
0.0491343
0.0479353
0.0475082
0.0469555
0.0488195
0.0487574
0.0486355
0.0483623
0.0477146
0.0466052
0.045216
0.0440706
0.0442123
0.047583
0.0567194
0.0706227
0.0844704
0.0884981
0.0837651
0.0792305
0.0775585
0.0775841
0.0773268
0.0765287
0.0417513
0.0417201
0.0417051
0.0417375
0.0417303
0.04158
0.0414666
0.0419606
0.0441974
0.0507256
0.0650117
0.0861702
0.105559
0.106598
0.100403
0.097433
0.097509
0.0990555
0.09906
0.0981243
0.0353797
0.0353706
0.0354124
0.0355673
0.0358186
0.0361476
0.0367519
0.0381401
0.0414183
0.0490983
0.0649322
0.0878788
0.107761
0.10822
0.104381
0.104667
0.106676
0.108991
0.108904
0.107835
0.0291448
0.0291536
0.0292242
0.0293982
0.0297474
0.0302187
0.0310364
0.0326259
0.0358718
0.0427439
0.0558524
0.0750088
0.0909533
0.0909458
0.0895658
0.093746
0.100253
0.104027
0.103878
0.102715
0.0226839
0.0226898
0.0227442
0.0228573
0.0231469
0.0236699
0.0244548
0.0258013
0.028257
0.0328056
0.0401662
0.049092
0.0556957
0.0558458
0.0614709
0.0711184
0.0796444
0.0832241
0.0832119
0.0822289
0.0159161
0.0159069
0.0159292
0.0159856
0.0162111
0.0166129
0.017157
0.0180366
0.0194535
0.0214637
0.0218583
0.0173223
0.00938454
0.01314
0.0272886
0.0417486
0.0507735
0.0539739
0.0537947
0.0530678
0.00887749
0.00885037
0.00887537
0.00891011
0.00897906
0.00920025
0.00950249
0.0100835
0.0108068
0.0108488
0.00686541
-0.00934677
-0.0231291
-0.0169906
0.000684879
0.0158072
0.0225218
0.024076
0.023768
0.0232973
0.00193873
0.00189586
0.00186816
0.00186597
0.0018254
0.00170523
0.00171401
0.00198843
0.00212874
0.00245008
0.00226121
-0.00146882
-0.00916613
-0.00840003
-0.00502194
-0.00262806
-0.00399653
-0.00392216
-0.000659009
0.00103161
-0.0102367
0.158721
0.356371
0.528487
0.66652
0.775864
0.866601
0.94356
0.978214
0.954906
0.297405
0.419604
0.551056
0.664885
0.761054
0.840829
0.905397
0.951139
0.974047
0.986063
0.519284
0.603147
0.692981
0.772517
0.840986
0.898276
0.943806
0.977043
1.00103
1.01896
0.681929
0.741758
0.804511
0.862249
0.912551
0.955254
0.990304
1.01824
1.0412
1.05948
0.8087
0.852357
0.898805
0.943064
0.982172
1.01631
1.04551
1.0698
1.0903
1.10812
0.913823
0.94703
0.985462
1.02131
1.0542
1.08367
1.10941
1.13103
1.14895
1.16629
1.00689
1.03577
1.06996
1.10229
1.13241
1.15972
1.18358
1.20339
1.21895
1.23602
1.09579
1.12512
1.15927
1.19143
1.22114
1.24782
1.27076
1.2893
1.30272
1.31975
1.1913
1.22459
1.26132
1.29498
1.32509
1.35133
1.37334
1.39065
1.40255
1.41995
1.30642
1.3443
1.383
1.41729
1.44668
1.47147
1.49187
1.50778
1.51927
1.53735
1.45144
1.49001
1.52619
1.55691
1.58261
1.60473
1.62381
1.63935
1.65179
1.66979
1.62658
1.6582
1.68441
1.70688
1.72687
1.74561
1.76333
1.77982
1.79518
1.81325
1.81522
1.83243
1.84747
1.86371
1.87963
1.89417
1.90738
1.92132
1.93886
1.95902
1.99694
2.00649
2.01804
2.02886
2.03814
2.04773
2.05852
2.06989
2.08126
2.09662
2.20421
2.20787
2.19292
2.17811
2.17184
2.17752
2.196
2.22632
2.2585
2.28515
2.51052
2.37565
2.29902
2.25666
2.23923
2.2432
2.2706
2.32701
2.42963
2.654
0.804548
0.802417
0.797932
0.789303
0.777073
0.764936
0.754696
0.746782
0.741138
0.737848
0.737448
0.740141
0.745209
0.752403
0.761769
0.773295
0.785935
0.796963
0.803071
0.806122
0.729011
0.734857
0.741191
0.745678
0.74814
0.747806
0.745055
0.741226
0.737687
0.735389
0.735195
0.737343
0.740966
0.745225
0.749009
0.750876
0.749927
0.746436
0.741267
0.734645
0.720608
0.722904
0.726304
0.729294
0.73136
0.732845
0.733583
0.733245
0.73219
0.731265
0.731386
0.732759
0.734529
0.7358
0.735953
0.735042
0.733477
0.73113
0.727858
0.724934
0.715124
0.716211
0.71804
0.72041
0.722424
0.723838
0.72484
0.725565
0.725931
0.726106
0.726535
0.72728
0.727826
0.72785
0.727404
0.726529
0.72504
0.722941
0.720844
0.719458
0.709958
0.710621
0.711724
0.713421
0.715191
0.716807
0.71808
0.719066
0.719907
0.720641
0.721299
0.721775
0.721905
0.721686
0.721078
0.71999
0.718536
0.716972
0.715641
0.714858
0.705028
0.705489
0.706271
0.70756
0.709033
0.710532
0.711971
0.713235
0.714323
0.715311
0.71614
0.716617
0.716683
0.716344
0.715593
0.714561
0.713401
0.712243
0.711311
0.710791
0.700258
0.700603
0.70121
0.702269
0.703547
0.7049
0.70631
0.707715
0.709032
0.710233
0.711239
0.711819
0.711897
0.711538
0.710871
0.710038
0.709142
0.708242
0.70755
0.707168
0.695596
0.695864
0.696353
0.697252
0.698405
0.699677
0.701038
0.702481
0.703956
0.705382
0.706604
0.707335
0.707511
0.707284
0.706803
0.706171
0.705464
0.704781
0.704266
0.703974
0.690963
0.691176
0.691582
0.69237
0.693441
0.694663
0.696009
0.69749
0.699083
0.700726
0.702205
0.703162
0.703544
0.703529
0.703253
0.70282
0.702301
0.701797
0.701417
0.701188
0.686277
0.686449
0.686796
0.687511
0.688536
0.689733
0.6911
0.692652
0.694383
0.696254
0.698038
0.69931
0.699977
0.700215
0.700162
0.69993
0.699599
0.699252
0.698982
0.6988
0.681457
0.681596
0.681901
0.682571
0.683578
0.684795
0.686221
0.687886
0.689805
0.691952
0.694111
0.69578
0.696791
0.697319
0.697514
0.697491
0.697341
0.697142
0.696964
0.696818
0.676422
0.676533
0.67681
0.677461
0.678486
0.679769
0.6813
0.683133
0.685309
0.687818
0.690444
0.692585
0.693993
0.694851
0.695319
0.695519
0.69555
0.695492
0.695393
0.695276
0.671087
0.671174
0.671434
0.672091
0.673169
0.67456
0.676249
0.678315
0.680825
0.683795
0.686997
0.689709
0.691586
0.692824
0.693598
0.694051
0.694277
0.694353
0.694323
0.694228
0.665357
0.665422
0.665675
0.666358
0.667526
0.669071
0.670978
0.673354
0.676289
0.679839
0.683752
0.687151
0.689589
0.691273
0.692399
0.693133
0.69357
0.693786
0.693822
0.693746
0.659117
0.659162
0.659413
0.660144
0.661441
0.663193
0.665388
0.668157
0.671624
0.675881
0.680662
0.684909
0.688032
0.690251
0.691785
0.692833
0.693519
0.693885
0.693986
0.693928
0.65223
0.652254
0.652508
0.653311
0.654781
0.656803
0.659372
0.662653
0.666808
0.671962
0.67781
0.683067
0.686994
0.689842
0.691854
0.693266
0.694233
0.694761
0.694928
0.694885
0.644525
0.644535
0.644792
0.645683
0.647378
0.649732
0.652776
0.656701
0.661715
0.667979
0.675133
0.681616
0.686503
0.690098
0.692693
0.694552
0.695835
0.696542
0.696779
0.696749
0.635704
0.635681
0.635992
0.63702
0.638987
0.641775
0.645428
0.650168
0.656251
0.663886
0.672636
0.680593
0.686642
0.691126
0.694409
0.696812
0.698466
0.69938
0.699692
0.699674
0.625507
0.625459
0.625812
0.627019
0.629334
0.632678
0.637102
0.642874
0.650312
0.659646
0.670341
0.680085
0.687503
0.693047
0.697151
0.700189
0.702288
0.703437
0.70383
0.703821
0.613453
0.613376
0.613806
0.615255
0.618031
0.622104
0.627539
0.634658
0.643831
0.655306
0.668361
0.680194
0.689218
0.696006
0.701079
0.70485
0.70747
0.708887
0.709363
0.709361
0.598926
0.59882
0.599367
0.601141
0.604526
0.609569
0.616334
0.625196
0.636561
0.650655
0.66656
0.6809
0.691818
0.700063
0.706296
0.71095
0.71418
0.715897
0.716457
0.716453
0.580976
0.580844
0.581581
0.583843
0.588096
0.594504
0.603113
0.61434
0.628585
0.645982
0.665281
0.682466
0.695511
0.705397
0.712945
0.718609
0.722527
0.724565
0.725199
0.725183
0.55814
0.557993
0.559062
0.5621
0.567684
0.57611
0.587341
0.601783
0.619731
0.641154
0.664437
0.684898
0.700341
0.712068
0.721059
0.72786
0.732522
0.734878
0.735566
0.735527
0.528067
0.527945
0.529628
0.534035
0.541875
0.553477
0.568592
0.587482
0.610213
0.63652
0.664372
0.688419
0.706439
0.720129
0.730682
0.738697
0.744092
0.746717
0.74742
0.747347
0.486617
0.486662
0.489713
0.496996
0.509039
0.525874
0.546769
0.571665
0.600358
0.632376
0.665298
0.693179
0.713893
0.729625
0.741792
0.751042
0.757066
0.75983
0.760494
0.760379
0.426105
0.427302
0.434816
0.448493
0.468245
0.493395
0.522422
0.554971
0.590732
0.629138
0.667464
0.699288
0.722716
0.740453
0.754229
0.764588
0.771081
0.7738
0.774309
0.774154
0.353855
0.35566
0.370052
0.393688
0.424276
0.459239
0.497178
0.537952
0.581371
0.626929
0.671651
0.708498
0.735611
0.75618
0.772024
0.783788
0.790901
0.793703
0.79427
0.794232
0.279171
0.285402
0.306668
0.34047
0.381347
0.425868
0.472702
0.521762
0.572941
0.625792
0.677123
0.719223
0.750186
0.773788
0.792091
0.805446
0.81302
0.81549
0.815866
0.81592
0.218201
0.226684
0.252585
0.293405
0.342247
0.394899
0.449745
0.506551
0.56513
0.624989
0.68264
0.729664
0.764179
0.790463
0.810749
0.825311
0.833091
0.835863
0.836673
0.836798
0.168535
0.177604
0.207057
0.253082
0.308022
0.367229
0.428823
0.492461
0.55778
0.624174
0.687762
0.739379
0.777111
0.805759
0.827833
0.843593
0.852302
0.855694
0.856687
0.856833
0.126811
0.136156
0.168053
0.218047
0.277974
0.342619
0.40993
0.479524
0.550877
0.623251
0.692343
0.748189
0.788861
0.819685
0.843391
0.860169
0.86965
0.8735
0.87467
0.87482
0.0906573
0.100122
0.133861
0.187039
0.251053
0.320311
0.392606
0.467462
0.544249
0.62209
0.696251
0.755995
0.799348
0.832055
0.856986
0.874543
0.884705
0.888958
0.890205
0.890362
0.0584283
0.0679467
0.103098
0.158959
0.226394
0.299612
0.3763
0.455876
0.537614
0.620495
0.699392
0.762777
0.808564
0.842828
0.868606
0.886665
0.897319
0.901915
0.903266
0.903439
0.0288686
0.0384494
0.0747553
0.13293
0.203314
0.27999
0.360577
0.444419
0.530704
0.618314
0.701717
0.768583
0.816626
0.852243
0.878704
0.897152
0.908069
0.912942
0.914388
0.914561
0.00115161
0.0107945
0.0481493
0.108302
0.181312
0.261053
0.345123
0.432838
0.52334
0.615428
0.703202
0.773475
0.82369
0.860532
0.887589
0.906339
0.917439
0.922487
0.923941
0.924107
-0.0252611
-0.0155264
0.0227991
0.0846452
0.160035
0.242517
0.329727
0.42098
0.5154
0.611761
0.703834
0.777514
0.82988
0.867917
0.895549
0.914579
0.925808
0.93089
0.932346
0.932439
-0.0508107
-0.0408958
-0.00171566
0.0617581
0.139254
0.224198
0.314251
0.408735
0.506812
0.607265
0.703587
0.780734
0.835322
0.874615
0.90287
0.922178
0.93351
0.938566
0.939976
0.940051
-0.075693
-0.0655425
-0.0256023
0.0394543
0.118838
0.205992
0.298613
0.396052
0.497529
0.601895
0.702429
0.783144
0.840101
0.880779
0.909752
0.929365
0.940767
0.945756
0.947074
0.947131
-0.0999701
-0.0896025
-0.0488457
0.0175921
0.0987015
0.187857
0.282787
0.382913
0.487535
0.595613
0.700311
0.784735
0.844269
0.886519
0.91631
0.93623
0.947628
0.952473
0.953667
0.953666
-0.123765
-0.113093
-0.071581
-0.00383663
0.0788265
0.169774
0.266775
0.369329
0.47684
0.58841
0.697176
0.785451
0.847842
0.891924
0.922656
0.942848
0.954135
0.958747
0.959758
0.959693
-0.14701
-0.136056
-0.0938052
-0.0248473
0.0592275
0.151775
0.250623
0.355347
0.465473
0.580276
0.692973
0.785212
0.85079
0.897056
0.928919
0.949341
0.960328
0.964551
0.965351
0.965233
-0.169739
-0.158481
-0.115454
-0.0454113
0.0399377
0.133901
0.234379
0.341033
0.453492
0.571232
0.687658
0.783931
0.853026
0.901934
0.935259
0.955893
0.966317
0.969921
0.97045
0.970282
-0.191772
-0.18028
-0.136501
-0.0654705
0.0210123
0.116228
0.218114
0.326459
0.44097
0.561336
0.68121
0.781507
0.854421
0.906505
0.941842
0.962848
0.972358
0.974913
0.975029
0.974819
-0.213239
-0.201406
-0.156922
-0.0849947
0.00248917
0.0987982
0.201922
0.311707
0.427994
0.550666
0.673639
0.777837
0.854797
0.910598
0.948734
0.970717
0.979115
0.979889
0.979125
0.978841
-0.233977
-0.221831
-0.176684
-0.103936
-0.0155495
0.0816981
0.185884
0.296897
0.414673
0.539288
0.664992
0.772829
0.85394
0.913904
0.955731
0.979959
0.987912
0.986262
0.983333
0.982126
-0.254044
-0.241601
-0.195735
-0.12224
-0.0330661
0.064997
0.170084
0.282107
0.401115
0.52734
0.655345
0.766403
0.851639
0.915983
0.962165
0.990324
1.00015
0.997442
0.990464
0.981305
-0.27336
-0.260675
-0.214172
-0.140069
-0.0502759
0.0484087
0.154175
0.266925
0.386859
0.514301
0.644144
0.757959
0.847329
0.916311
0.967065
1.00062
1.01573
1.01476
1.00451
0.997448
-0.291879
-0.278978
-0.231992
-0.157386
-0.0671767
0.0319329
0.138173
0.251331
0.37186
0.500059
0.63121
0.747147
0.840297
0.914105
0.96818
1.0057
1.02347
1.02755
0.990082
0.937509
-0.309315
-0.295728
-0.249074
-0.174118
-0.0838755
0.0154191
0.12203
0.235443
0.356178
0.484676
0.616482
0.733781
0.829523
0.908901
0.963368
0.995139
1.01349
0.999088
0.942618
0.879544
-0.326005
-0.311528
-0.265348
-0.189545
-0.0999561