/*--------------------------------*- C++ -*----------------------------------*\
  =========                 |
  \\      /  F ield         | OpenFOAM: The Open Source CFD Toolbox
   \\    /   O peration     | Website:  https://openfoam.org
    \\  /    A nd           | Version:  9
     \\/     M anipulation  |
\*---------------------------------------------------------------------------*/
FoamFile
{
    format      ascii;
    class       volVectorField;
    location    "43";
    object      U;
}
// * * * * * * * * * * * * * * * * * * * * * * * * * * * * * * * * * * * * * //

dimensions      [0 1 -1 0 0 0 0];

internalField   nonuniform List<vector> 
8800
(
(0.98015 -0.091521 0)
(1.00234 -0.0587245 0)
(0.9996 -0.032125 0)
(0.999993 -0.0165165 0)
(1.00006 -0.00883218 0)
(1.00006 -0.0050848 0)
(1.00004 -0.00298986 0)
(1.00002 -0.00168996 0)
(0.999997 -0.000794114 0)
(1.00006 -9.84745e-05 0)
(0.999989 0.000605484 0)
(0.999997 0.00135638 0)
(1.00001 0.0023833 0)
(1.00002 0.00399325 0)
(1.00003 0.00674553 0)
(0.999986 0.0120487 0)
(0.99979 0.0230946 0)
(0.999032 0.0431583 0)
(1.00723 0.0790274 0)
(0.775023 0.0478396 0)
(0.358979 -0.014749 0)
(1.04649 -0.0724915 0)
(1.08848 -0.0660289 0)
(1.04945 -0.0509224 0)
(1.02554 -0.0377013 0)
(1.01271 -0.0258931 0)
(1.00655 -0.0167049 0)
(1.00361 -0.0102305 0)
(1.00218 -0.00560879 0)
(1.00151 -0.00202475 0)
(1.00138 0.00118211 0)
(1.00173 0.00448542 0)
(1.0027 0.00837295 0)
(1.00473 0.013693 0)
(1.00896 0.0213848 0)
(1.01794 0.031886 0)
(1.03578 0.0446614 0)
(1.0674 0.0581051 0)
(1.0947 0.0699648 0)
(0.845641 0.055506 0)
(0.217767 -0.00138167 0)
(1.07566 -0.0506652 0)
(1.09941 -0.0489514 0)
(1.06438 -0.0400372 0)
(1.03987 -0.0325776 0)
(1.02377 -0.025366 0)
(1.01399 -0.0181623 0)
(1.0085 -0.0115548 0)
(1.00565 -0.00580894 0)
(1.00447 -0.000528222 0)
(1.00479 0.00457696 0)
(1.00664 0.00985995 0)
(1.01056 0.0158326 0)
(1.01787 0.022604 0)
(1.03049 0.0297261 0)
(1.05048 0.0368195 0)
(1.08003 0.0445961 0)
(1.10565 0.0519248 0)
(0.94329 0.0410047 0)
(0.217215 0.00140444 0)
(0.176611 -0.000629381 0)
(1.01936 -0.0354791 0)
(1.1057 -0.0414343 0)
(1.07796 -0.0364226 0)
(1.05241 -0.0303791 0)
(1.03517 -0.0245101 0)
(1.02332 -0.018734 0)
(1.01553 -0.0127494 0)
(1.01093 -0.00666573 0)
(1.0089 -0.000442652 0)
(1.00944 0.00570306 0)
(1.01252 0.0116145 0)
(1.01847 0.0173887 0)
(1.02805 0.0229792 0)
(1.04226 0.0285476 0)
(1.06309 0.034339 0)
(1.09386 0.0402289 0)
(1.09444 0.0417602 0)
(0.830259 0.0227677 0)
(0.175666 0.000647417 0)
(0.154686 -0.000463228 0)
(0.958096 -0.0257099 0)
(1.10436 -0.0351496 0)
(1.08804 -0.0327102 0)
(1.0612 -0.028211 0)
(1.04314 -0.0232627 0)
(1.03077 -0.0179826 0)
(1.0222 -0.0124577 0)
(1.01666 -0.00656639 0)
(1.01402 -0.000128441 0)
(1.01467 0.00632189 0)
(1.01847 0.0121872 0)
(1.02524 0.0175104 0)
(1.03537 0.0225404 0)
(1.05012 0.027384 0)
(1.07206 0.0318368 0)
(1.10103 0.0357208 0)
(1.06974 0.0339392 0)
(0.742665 0.0144385 0)
(0.153275 0.000483487 0)
(0.139984 -0.000335255 0)
(0.901021 -0.019349 0)
(1.09672 -0.0302654 0)
(1.09614 -0.0294014 0)
(1.06887 -0.02563 0)
(1.05003 -0.0215642 0)
(1.03708 -0.0168942 0)
(1.02812 -0.0116704 0)
(1.0222 -0.00597326 0)
(1.01924 0.000357909 0)
(1.01987 0.00671151 0)
(1.02388 0.0123529 0)
(1.0309 0.0173415 0)
(1.04141 0.0218309 0)
(1.0568 0.025796 0)
(1.0796 0.0293322 0)
(1.10337 0.0320638 0)
(1.03803 0.0280807 0)
(0.675956 0.010285 0)
(0.138001 0.000359242 0)
(0.129226 -0.000254122 0)
(0.851062 -0.0149568 0)
(1.0843 -0.0261803 0)
(1.10178 -0.0265526 0)
(1.07565 -0.0232556 0)
(1.0563 -0.0196315 0)
(1.04293 -0.0154684 0)
(1.0336 -0.0106345 0)
(1.02741 -0.0051691 0)
(1.02424 0.000965471 0)
(1.02478 0.00709573 0)
(1.02882 0.012448 0)
(1.036 0.0170159 0)
(1.0468 0.0209159 0)
(1.06257 0.0242902 0)
(1.08584 0.0273493 0)
(1.10266 0.0291877 0)
(1.00348 0.0235135 0)
(0.624065 0.00787394 0)
(0.126545 0.000283243 0)
(0.121017 -0.000195486 0)
(0.808466 -0.011775 0)
(1.0689 -0.0225973 0)
(1.10522 -0.0239451 0)
(1.08183 -0.0211088 0)
(1.06203 -0.0177154 0)
(1.0484 -0.0138434 0)
(1.03881 -0.00935284 0)
(1.03236 -0.00418567 0)
(1.02897 0.00169998 0)
(1.02937 0.00755379 0)
(1.03338 0.0125437 0)
(1.04064 0.0166492 0)
(1.05154 0.020072 0)
(1.06757 0.0230484 0)
(1.09123 0.0258086 0)
(1.09908 0.0267501 0)
(0.968591 0.0199026 0)
(0.582519 0.00629424 0)
(0.117489 0.000230866 0)
(0.114643 -0.000151075 0)
(0.77252 -0.00939285 0)
(1.05192 -0.0194434 0)
(1.10749 -0.0215432 0)
(1.08762 -0.0190992 0)
(1.0674 -0.0158793 0)
(1.05351 -0.0121888 0)
(1.04375 -0.00791388 0)
(1.03708 -0.00300495 0)
(1.03344 0.00258932 0)
(1.03366 0.00810607 0)
(1.03758 0.0127065 0)
(1.04478 0.0164148 0)
(1.05573 0.0194713 0)
(1.07201 0.0221127 0)
(1.0954 0.0245403 0)
(1.09277 0.0246947 0)
(0.934741 0.0170828 0)
(0.548328 0.00520139 0)
(0.110084 0.000194107 0)
(0.109658 -0.000115889 0)
(0.742311 -0.00754421 0)
(1.03445 -0.016637 0)
(1.10874 -0.0192749 0)
(1.09306 -0.0171711 0)
(1.07255 -0.0140716 0)
(1.0584 -0.0104947 0)
(1.04846 -0.00636898 0)
(1.04159 -0.00166381 0)
(1.03771 0.00365621 0)
(1.03768 0.008833 0)
(1.04141 0.0130559 0)
(1.0485 0.0163992 0)
(1.05945 0.0191273 0)
(1.07596 0.0214721 0)
(1.09832 0.0235303 0)
(1.08411 0.0229523 0)
(0.902562 0.0148977 0)
(0.519464 0.00442508 0)
(0.103845 0.000168345 0)
(0.10577 -8.6947e-05 0)
(0.717027 -0.00605328 0)
(1.01732 -0.0141128 0)
(1.10913 -0.017069 0)
(1.09837 -0.0152533 0)
(1.07759 -0.0121806 0)
(1.06315 -0.00867423 0)
(1.05299 -0.0046645 0)
(1.0459 -0.000115468 0)
(1.04173 0.00494492 0)
(1.0414 0.00977171 0)
(1.04487 0.0136284 0)
(1.05179 0.0166144 0)
(1.06276 0.0190052 0)
(1.0795 0.0210793 0)
(1.09995 0.0227702 0)
(1.07353 0.0215092 0)
(0.872239 0.0132334 0)
(0.494497 0.00387365 0)
(0.0984322 0.000151058 0)
(0.102789 -6.20827e-05 0)
(0.696036 -0.00480156 0)
(1.00115 -0.0118019 0)
(1.1088 -0.0149128 0)
(1.10348 -0.013344 0)
(1.08258 -0.0102813 0)
(1.06781 -0.00678257 0)
(1.05741 -0.0028036 0)
(1.05004 0.00164108 0)
(1.04553 0.00648911 0)
(1.04482 0.0110049 0)
(1.04798 0.014503 0)
(1.05472 0.0171395 0)
(1.06566 0.0192148 0)
(1.08258 0.0210175 0)
(1.10061 0.0222828 0)
(1.06134 0.0203647 0)
(0.843681 0.0119868 0)
(0.47238 0.00348685 0)
(0.0935918 0.000140192 0)
(0.100594 -3.89701e-05 0)
(0.678883 -0.00369582 0)
(0.986422 -0.00962308 0)
(1.10791 -0.0126746 0)
(1.1083 -0.0112583 0)
(1.08758 -0.00818424 0)
(1.07248 -0.00465278 0)
(1.06177 -0.000675975 0)
(1.05404 0.00369194 0)
(1.0491 0.00836697 0)
(1.04793 0.0125892 0)
(1.05071 0.015727 0)
(1.05724 0.0180019 0)
(1.06816 0.0197339 0)
(1.08517 0.021231 0)
(1.10025 0.0221261 0)
(1.0478 0.0195042 0)
(0.816665 0.0110865 0)
(0.452316 0.00322714 0)
(0.0891321 0.000134606 0)
(0.0991223 -1.63569e-05 0)
(0.665272 -0.00266613 0)
(0.97351 -0.0075057 0)
(1.10684 -0.0103187 0)
(1.11304 -0.00896519 0)
(1.09268 -0.00584028 0)
(1.07719 -0.0022295 0)
(1.06611 0.00179221 0)
(1.05796 0.00613329 0)
(1.05248 0.0106496 0)
(1.05075 0.014556 0)
(1.05309 0.0173024 0)
(1.05932 0.0191676 0)
(1.0702 0.0205191 0)
(1.08729 0.0217489 0)
(1.09883 0.0222349 0)
(1.03306 0.0189301 0)
(0.790879 0.0104742 0)
(0.433678 0.00306864 0)
(0.0849016 0.000133288 0)
(0.0983542 7.12009e-06 0)
(0.655055 -0.00166393 0)
(0.962722 -0.00538186 0)
(1.10586 -0.00778979 0)
(1.11777 -0.00644816 0)
(1.09792 -0.00326831 0)
(1.08201 0.000490591 0)
(1.07051 0.00464377 0)
(1.06185 0.00902847 0)
(1.05571 0.0134271 0)
(1.05329 0.0170348 0)
(1.05508 0.0193982 0)
(1.06097 0.020876 0)
(1.07177 0.0218302 0)
(1.08885 0.0226804 0)
(1.09626 0.022667 0)
(1.01719 0.018637 0)
(0.765977 0.0101097 0)
(0.415958 0.00299454 0)
(0.0807714 0.000135801 0)
(0.0983215 2.82434e-05 0)
(0.648238 -0.000645658 0)
(0.954401 -0.00317484 0)
(1.1053 -0.00498117 0)
(1.12258 -0.00353135 0)
(1.10339 -0.000229283 0)
(1.08705 0.00373091 0)
(1.07502 0.0080391 0)
(1.06571 0.0124964 0)
(1.05877 0.016816 0)
(1.05551 0.0201196 0)
(1.05664 0.0220349 0)
(1.06212 0.0230128 0)
(1.0728 0.0235025 0)
(1.08964 0.0239606 0)
(1.09231 0.0234306 0)
(1.00018 0.0186435 0)
(0.741604 0.00997949 0)
(0.398712 0.00299949 0)
(0.0766343 0.000141882 0)
(0.0990663 6.58003e-05 0)
(0.64497 0.000423361 0)
(0.948901 -0.000804426 0)
(1.1056 -0.00183139 0)
(1.12778 -0.000132617 0)
(1.10918 0.00338033 0)
(1.09232 0.00758903 0)
(1.07966 0.0121103 0)
(1.06957 0.0167018 0)
(1.06164 0.0209489 0)
(1.05737 0.0239109 0)
(1.05769 0.0253547 0)
(1.06266 0.0257934 0)
(1.0732 0.0257571 0)
(1.08954 0.0257512 0)
(1.0869 0.0245876 0)
(0.981981 0.0189925 0)
(0.717346 0.0100774 0)
(0.381521 0.00307975 0)
(0.0723807 0.000151366 0)
(0.10079 9.55833e-05 0)
(0.645594 0.00160921 0)
(0.946547 0.00177653 0)
(1.10713 0.00173444 0)
(1.1335 0.00372628 0)
(1.11541 0.00751666 0)
(1.09796 0.0121099 0)
(1.08455 0.0169849 0)
(1.07348 0.0217857 0)
(1.06431 0.0259962 0)
(1.05882 0.0286154 0)
(1.05818 0.0294903 0)
(1.06253 0.029345 0)
(1.07286 0.0287584 0)
(1.08833 0.0281676 0)
(1.07986 0.0261853 0)
(0.962357 0.0196785 0)
(0.692776 0.0104006 0)
(0.363975 0.00323279 0)
(0.0679079 0.000164008 0)
(0.103559 0.000143947 0)
(0.650581 0.003104 0)
(0.947858 0.00476084 0)
(1.11034 0.0058899 0)
(1.13983 0.00835389 0)
(1.12222 0.0125873 0)
(1.10414 0.0176548 0)
(1.08981 0.0229362 0)
(1.07755 0.0279961 0)
(1.06693 0.0321722 0)
(1.05988 0.0343698 0)
(1.05807 0.0346156 0)
(1.06166 0.0337627 0)
(1.07168 0.0325258 0)
(1.0858 0.0312478 0)
(1.07092 0.0282899 0)
(0.941142 0.0207891 0)
(0.667431 0.0109767 0)
(0.345664 0.00346365 0)
(0.0631196 0.000179588 0)
(0.10765 0.000204618 0)
(0.660296 0.00479767 0)
(0.953309 0.00823593 0)
(1.11583 0.0107245 0)
(1.14719 0.0138988 0)
(1.12979 0.0187773 0)
(1.11089 0.0244109 0)
(1.0954 0.0301877 0)
(1.08163 0.0355711 0)
(1.06915 0.0397096 0)
(1.0603 0.0414058 0)
(1.05714 0.0408991 0)
(1.05982 0.0392215 0)
(1.06948 0.0372128 0)
(1.0818 0.0352005 0)
(1.05985 0.0310911 0)
(0.917919 0.022393 0)
(0.640716 0.0118268 0)
(0.326124 0.0037734 0)
(0.0579092 0.000197794 0)
(0.113398 0.000288206 0)
(0.675503 0.00693319 0)
(0.963475 0.0124356 0)
(1.12404 0.0164562 0)
(1.15591 0.0204809 0)
(1.13835 0.0261951 0)
(1.11845 0.0326077 0)
(1.10155 0.0390747 0)
(1.08595 0.0448667 0)
(1.07124 0.0489083 0)
(1.06022 0.0499538 0)
(1.05537 0.0485527 0)
(1.0569 0.0459657 0)
(1.06608 0.0431074 0)
(1.07628 0.0401801 0)
(1.04627 0.0346928 0)
(0.892191 0.0245788 0)
(0.611965 0.0129821 0)
(0.304876 0.00415998 0)
(0.0521987 0.000216178 0)
(0.121316 0.000406189 0)
(0.69704 0.00966304 0)
(0.979151 0.0175783 0)
(1.13553 0.0234227 0)
(1.16634 0.0285586 0)
(1.14827 0.0353937 0)
(1.12709 0.0428028 0)
(1.10832 0.0500805 0)
(1.09035 0.0562662 0)
(1.07291 0.060119 0)
(1.05933 0.0603444 0)
(1.05255 0.0578282 0)
(1.05278 0.0542144 0)
(1.0613 0.0504069 0)
(1.06892 0.0464437 0)
(1.02973 0.0393269 0)
(0.863354 0.0275071 0)
(0.58033 0.0145071 0)
(0.281361 0.00462819 0)
(0.0459293 0.000233202 0)
(0.132143 0.000580491 0)
(0.726205 0.0133294 0)
(1.00145 0.0241076 0)
(1.15115 0.0321431 0)
(1.1792 0.0388147 0)
(1.15989 0.0471948 0)
(1.13689 0.0557746 0)
(1.11564 0.0638679 0)
(1.09469 0.0703211 0)
(1.07399 0.0737061 0)
(1.05745 0.0727961 0)
(1.0485 0.0689238 0)
(1.04727 0.064047 0)
(1.05495 0.0591798 0)
(1.05939 0.0540872 0)
(1.00972 0.0452241 0)
(0.830555 0.0313176 0)
(0.544763 0.0164385 0)
(0.254961 0.00517148 0)
(0.0390533 0.000248468 0)
(0.147077 0.000853911 0)
(0.764832 0.018567 0)
(1.03188 0.0328031 0)
(1.17193 0.0434755 0)
(1.19542 0.0522094 0)
(1.17361 0.0624168 0)
(1.14796 0.072273 0)
(1.12347 0.0810918 0)
(1.09888 0.0875537 0)
(1.07433 0.0900847 0)
(1.05445 0.0876838 0)
(1.04307 0.0821821 0)
(1.04032 0.0758416 0)
(1.04701 0.0696445 0)
(1.04733 0.0633893 0)
(0.985552 0.0525092 0)
(0.792811 0.0360527 0)
(0.504143 0.018718 0)
(0.22518 0.00574632 0)
(0.0315716 0.000259512 0)
(0.168236 0.00132466 0)
(0.815924 0.026549 0)
(1.07301 0.0452717 0)
(1.19877 0.059252 0)
(1.2155 0.0706605 0)
(1.18952 0.0825687 0)
(1.16007 0.093614 0)
(1.13137 0.102774 0)
(1.10232 0.108638 0)
(1.07336 0.10964 0)
(1.04985 0.105164 0)
(1.03595 0.0977057 0)
(1.03165 0.089776 0)
(1.0371 0.0822658 0)
(1.03228 0.0744758 0)
(0.956308 0.0611347 0)
(0.748992 0.0415971 0)
(0.457592 0.0211805 0)
(0.191955 0.00627752 0)
(0.0235987 0.000262635 0)
(0.198977 0.00237716 0)
(0.885109 0.0400874 0)
(1.12793 0.0654035 0)
(1.23201 0.0830618 0)
(1.2392 0.0971501 0)
(1.20717 0.11026 0)
(1.17263 0.121624 0)
(1.13868 0.130032 0)
(1.1045 0.134186 0)
(1.07075 0.132641 0)
(1.04347 0.125322 0)
(1.02706 0.115448 0)
(1.02124 0.105689 0)
(1.02509 0.0968426 0)
(1.01361 0.087267 0)
(0.920938 0.0709368 0)
(0.697941 0.0475295 0)
(0.405281 0.0236059 0)
(0.156369 0.00670946 0)
(0.0155493 0.00025097 0)
(0.24087 0.00860397 5.67867e-20)
(0.976452 0.0673122 4.93926e-20)
(1.19444 0.0994227 -1.71421e-20)
(1.26893 0.118638 0)
(1.26396 0.135466 -4.24012e-34)
(1.22455 0.148021 6.16389e-21)
(1.18405 0.15791 -1.09033e-20)
(1.14419 0.164126 0)
(1.10441 0.16548 2.19306e-34)
(1.06548 0.160595 -1.30639e-20)
(1.03413 0.149928 0)
(1.015 0.137353 -1.53076e-20)
(1.00743 0.125679 -4.50134e-20)
(1.0093 0.11583 -2.12253e-20)
(0.989202 0.104847 -6.36451e-21)
(0.87504 0.0843627 -3.77739e-21)
(0.633861 0.055234 0)
(0.344614 0.0266614 2.64525e-21)
(0.119213 0.00775771 3.12445e-21)
(0.00794249 0.000401522 5.62473e-20)
(0.270019 0.0240095 4.41637e-20)
(1.05162 0.109882 5.21541e-22)
(1.24886 0.148105 4.69724e-21)
(1.30253 0.1675 0)
(1.28583 0.184102 -2.196e-20)
(1.23943 0.194598 -2.46931e-20)
(1.19285 0.202211 -1.11156e-20)
(1.14694 0.205982 -3.8942e-20)
(1.10121 0.204617 0)
(1.05642 0.196672 5.58216e-20)
(1.01998 0.183065 5.50018e-20)
(0.997166 0.1681 1.62833e-20)
(0.987195 0.154397 5.89719e-20)
(0.984505 0.142139 8.24806e-20)
(0.951968 0.127686 0)
(0.813795 0.101675 1.16098e-19)
(0.559072 0.0648759 1.6667e-19)
(0.282249 0.0305954 1.85204e-19)
(0.0849692 0.00878265 -2.11861e-19)
(0.00119138 0.000208955 -3.97708e-21)
(0.270862 0.0396975 0)
(1.09884 0.16522 8.39343e-21)
(1.28555 0.208057 0)
(1.32875 0.227051 -3.03359e-20)
(1.303 0.240395 0)
(1.25058 0.247134 -4.93086e-20)
(1.19833 0.251128 2.29083e-20)
(1.14674 0.251506 -7.91669e-20)
(1.09537 0.246761 -1.56487e-21)
(1.04502 0.235322 2.90767e-20)
(1.00372 0.21844 1.20979e-19)
(0.977181 0.20088 -2.948e-22)
(0.964005 0.185161 -4.28829e-20)
(0.956451 0.170839 -7.791e-20)
(0.916516 0.153175 9.22611e-20)
(0.76966 0.120939 -1.63251e-19)
(0.518588 0.0765607 -2.15733e-20)
(0.258266 0.0365308 0)
(0.0761886 0.0105473 -4.42326e-25)
(-0.000374013 5.60262e-06 0)
(0.264554 0.0533217 1.24628e-19)
(1.12407 0.22391 -5.86329e-20)
(1.30828 0.272729 -4.2185e-20)
(1.34599 0.29175 1.47478e-20)
(1.31396 0.300981 -2.46119e-20)
(1.25701 0.303349 1.03894e-19)
(1.20013 0.303164 4.81006e-20)
(1.14366 0.299649 0)
(1.08721 0.291044 -1.47565e-19)
(1.0316 0.275573 0)
(0.9856 0.25484 -6.3796e-20)
(0.955489 0.234305 -7.8111e-20)
(0.939453 0.216718 -4.67832e-20)
(0.928624 0.201269 -5.66644e-20)
(0.883959 0.181049 0)
(0.738185 0.143051 0)
(0.500241 0.0924367 -1.41114e-19)
(0.257504 0.0464521 2.79087e-20)
(0.0808639 0.0144069 -1.63524e-20)
(0.000839641 0.000173935 -1.91173e-20)
(0.257271 0.0654436 -6.05721e-20)
(1.13509 0.282529 0)
(1.32078 0.338458 9.17976e-20)
(1.35521 0.357846 4.28812e-20)
(1.31881 0.363135 5.60643e-20)
(1.25861 0.361166 0)
(1.19815 0.356827 4.77783e-20)
(1.13762 0.349291 8.83056e-20)
(1.07669 0.336609 7.60953e-20)
(1.01625 0.316912 1.37142e-19)
(0.965822 0.292519 0)
(0.932477 0.269605 -1.68743e-19)
(0.914238 0.250783 -1.01265e-19)
(0.90075 0.234107 -5.97517e-20)
(0.852739 0.210348 3.66339e-19)
(0.713566 0.167712 4.36276e-20)
(0.493361 0.111923 2.05354e-19)
(0.265981 0.0595162 -9.70887e-19)
(0.0922535 0.0206503 5.75837e-19)
(0.00425472 0.000991883 -6.94008e-19)
(0.250445 0.0764462 -4.23563e-20)
(1.13718 0.33921 1.14143e-20)
(1.32583 0.403297 -1.12441e-20)
(1.35803 0.423517 -4.77435e-20)
(1.31851 0.425212 -4.98934e-20)
(1.25598 0.419149 1.77073e-21)
(1.19271 0.410868 -5.17025e-20)
(1.12878 0.399365 9.18628e-20)
(1.06396 0.382623 -1.63824e-19)
(0.999266 0.358918 0)
(0.945005 0.331499 -7.67406e-20)
(0.908797 0.306919 -1.61403e-21)
(0.888199 0.286941 -1.10712e-19)
(0.871335 0.268045 0)
(0.821214 0.240163 -7.9382e-20)
(0.691934 0.193781 -1.88729e-19)
(0.490101 0.133489 5.05474e-19)
(0.276406 0.0748563 -4.97391e-19)
(0.104655 0.028569 7.0643e-19)
(0.00817246 0.00233378 -7.34045e-19)
(0.244842 0.0866833 -4.11163e-22)
(1.13378 0.393283 -7.84653e-21)
(1.32558 0.466239 -3.77012e-20)
(1.35592 0.487585 2.10655e-20)
(1.31415 0.486147 -2.54757e-20)
(1.24992 0.47635 0)
(1.18438 0.464353 -4.92043e-20)
(1.11756 0.449011 -9.64797e-20)
(1.0494 0.428376 -8.54638e-20)
(0.981135 0.40101 0)
(0.923672 0.370934 -7.98949e-20)
(0.884871 0.344583 -9.82281e-20)
(0.861407 0.322638 1.20023e-19)
(0.840648 0.3006 -7.27292e-20)
(0.789571 0.269164 -3.4614e-19)
(0.671044 0.220404 2.06484e-19)
(0.485813 0.156243 6.18079e-20)
(0.284265 0.0912069 0)
(0.114938 0.037248 -6.82618e-19)
(0.0116205 0.00391469 -2.50255e-20)
(0.240501 0.0964569 -2.84886e-21)
(1.12711 0.444537 5.61927e-21)
(1.32155 0.526768 1.88504e-20)
(1.3502 0.549343 7.24192e-20)
(1.30666 0.545224 -9.74723e-20)
(1.24118 0.532077 1.04861e-19)
(1.17376 0.516592 1.05775e-19)
(1.10449 0.497598 -1.54181e-19)
(1.03349 0.473319 5.18895e-20)
(0.962221 0.44256 -3.37291e-19)
(0.902012 0.409701 -8.99027e-20)
(0.860683 0.380822 0)
(0.834065 0.355936 1.29973e-19)
(0.809613 0.330468 1.55382e-19)
(0.758931 0.296418 1.85958e-19)
(0.65006 0.24599 -2.23979e-19)
(0.478756 0.178348 -6.62882e-20)
(0.287587 0.107039 7.79526e-20)
(0.121485 0.0455499 0)
(0.0140513 0.00542077 -5.42148e-20)
(0.237277 0.105907 7.56728e-21)
(1.11868 0.493066 -1.24479e-20)
(1.31503 0.58515 -1.83985e-20)
(1.34186 0.608429 4.62614e-20)
(1.29686 0.601983 -4.59712e-20)
(1.23039 0.585822 -4.0617e-21)
(1.1614 0.567101 -1.15056e-19)
(1.09005 0.544713 -5.56383e-20)
(1.01664 0.517071 -1.48169e-19)
(0.942759 0.483063 2.43886e-22)
(0.880004 0.447018 -2.81816e-19)
(0.836155 0.414848 2.35705e-19)
(0.806398 0.386549 -1.4234e-19)
(0.778888 0.358042 1.70702e-19)
(0.729248 0.322191 0)
(0.628445 0.270137 -1.2111e-19)
(0.468582 0.199128 -4.45615e-22)
(0.286027 0.121419 -3.3872e-19)
(0.123559 0.0526438 -4.98515e-20)
(0.0153444 0.00663138 0)
(0.235016 0.115155 0)
(1.10936 0.539059 -9.66855e-21)
(1.30663 0.640594 -2.77868e-20)
(1.33167 0.664681 -4.46404e-20)
(1.28541 0.656172 -5.55802e-20)
(1.21811 0.637281 0)
(1.14779 0.615578 -5.36448e-20)
(1.07467 0.590105 -1.15866e-21)
(0.999181 0.559412 3.1708e-19)
(0.922896 0.522218 -4.64345e-20)
(0.857624 0.482594 -2.0316e-19)
(0.811271 0.446698 1.2279e-19)
(0.778748 0.414978 -2.11107e-21)
(0.749056 0.383984 1.81344e-19)
(0.700603 0.346671 1.11648e-19)
(0.605718 0.292604 -2.61188e-19)
(0.455151 0.217652 3.0961e-19)
(0.279752 0.133304 9.15666e-20)
(0.121651 0.0578157 3.77591e-19)
(0.0155351 0.00738726 -1.01018e-18)
(0.233651 0.124314 -6.27334e-21)
(1.09971 0.582708 2.97199e-21)
(1.29715 0.693125 2.47123e-21)
(1.32018 0.718061 3.93923e-20)
(1.27281 0.707657 0)
(1.2048 0.686279 -5.09842e-20)
(1.13334 0.661877 1.78401e-19)
(1.05872 0.633659 1.22255e-19)
(0.981365 0.600221 0)
(0.902746 0.559902 -6.65526e-19)
(0.834903 0.516477 5.4811e-19)
(0.786112 0.476727 0)
(0.751273 0.441744 1.65601e-19)
(0.72011 0.408525 -2.07317e-21)
(0.672696 0.369502 -3.55939e-19)
(0.582082 0.312585 1.39497e-19)
(0.438475 0.233049 0)
(0.26913 0.142189 4.93097e-19)
(0.116261 0.0607451 0)
(0.0146488 0.00755301 -4.76741e-19)
(0.232995 0.133458 1.01393e-20)
(1.09019 0.624149 1.12447e-20)
(1.28669 0.742816 4.36959e-21)
(1.30783 0.768536 0)
(1.25947 0.75641 -5.08241e-20)
(1.19083 0.732765 0)
(1.11841 0.705949 -1.78267e-19)
(1.0425 0.67534 -5.78234e-20)
(0.963417 0.639464 5.62689e-20)
(0.882454 0.596125 -3.28903e-19)
(0.811938 0.548871 5.67203e-20)
(0.760761 0.505316 0)
(0.723984 0.467198 -3.53271e-19)
(0.691778 0.431725 2.07936e-21)
(0.645027 0.390491 0)
(0.557371 0.330051 1.93417e-21)
(0.418862 0.24518 4.49399e-19)
(0.254738 0.147717 -4.25465e-19)
(0.107977 0.0615694 1.25323e-19)
(0.0130598 0.00729612 0)
(0.232743 0.14244 0)
(1.08104 0.663471 1.83636e-20)
(1.27565 0.789826 4.80593e-21)
(1.29497 0.816165 -2.4141e-21)
(1.24571 0.80245 -2.00195e-20)
(1.17653 0.776749 -1.14226e-19)
(1.1033 0.747816 6.60769e-20)
(1.02624 0.715162 -6.71867e-20)
(0.945533 0.677136 2.49597e-19)
(0.86217 0.630958 -5.24856e-19)
(0.788854 0.580003 -3.55916e-21)
(0.735293 0.532754 -1.5541e-19)
(0.696813 0.491533 5.72072e-19)
(0.663781 0.453614 -2.43159e-21)
(0.617322 0.40964 -2.75065e-19)
(0.53139 0.344952 -4.91481e-19)
(0.396577 0.254008 0)
(0.237043 0.14991 0)
(0.0973882 0.0602708 1.35323e-19)
(0.0110617 0.00663225 -7.92578e-20)
(0.233066 0.151407 1.98831e-20)
(1.07223 0.70058 -4.70678e-20)
(1.26431 0.834202 -5.51475e-21)
(1.28183 0.861033 0)
(1.23176 0.845847 -1.58672e-21)
(1.16213 0.818286 -1.08301e-19)
(1.08825 0.787532 1.62073e-19)
(1.01018 0.753157 2.6717e-19)
(0.927886 0.713267 3.24914e-19)
(0.842061 0.664494 -4.28907e-19)
(0.765807 0.61008 -4.69229e-19)
(0.709771 0.559257 4.15318e-19)
(0.669674 0.514845 0)
(0.635896 0.47413 -1.24821e-19)
(0.589427 0.426799 -2.97254e-19)
(0.504306 0.357033 -3.5248e-19)
(0.371887 0.259206 -4.18285e-19)
(0.21674 0.148705 1.23659e-19)
(0.084997 0.0568201 -7.27531e-20)
(0.00867328 0.00555828 2.62827e-22)
(0.233467 0.16027 0)
(1.06399 0.735923 0)
(1.25284 0.876045 2.62534e-21)
(1.26859 0.90323 0)
(1.21783 0.886692 5.33318e-20)
(1.14784 0.857467 7.66165e-20)
(1.07344 0.825165 0)
(0.994463 0.789365 3.21921e-20)
(0.91063 0.747883 5.42742e-19)
(0.8223 0.696818 -9.84898e-19)
(0.742954 0.639271 0)
(0.684264 0.585002 -2.66764e-19)
(0.642458 0.537209 -2.95064e-21)
(0.607889 0.493207 -2.3705e-21)
(0.561174 0.441768 3.17259e-19)
(0.476181 0.366032 -3.49962e-22)
(0.344923 0.260594 -8.99408e-19)
(0.194358 0.144049 2.65771e-19)
(0.0719219 0.0516992 7.85298e-20)
(0.00621538 0.00424373 0)
(0.233915 0.168964 -9.38027e-20)
(1.05607 0.769567 -4.01667e-20)
(1.24131 0.915431 -3.82856e-20)
(1.2554 0.942865 -6.85226e-21)
(1.20405 0.925066 7.86306e-20)
(1.13381 0.894381 0)
(1.059 0.860788 9.96711e-20)
(0.97922 0.823826 -7.1143e-20)
(0.893899 0.781018 3.86711e-21)
(0.803053 0.728005 7.22424e-20)
(0.720456 0.667709 6.06568e-19)
(0.658842 0.610153 -9.36239e-20)
(0.615074 0.558751 -3.51423e-19)
(0.579509 0.510818 -1.4497e-19)
(0.532344 0.454318 1.72344e-19)
(0.447109 0.371611 -1.63571e-22)
(0.31677 0.258083 2.42166e-19)
(0.171269 0.136454 -5.71198e-19)
(0.058878 0.0453721 6.75192e-19)
(0.00384847 0.00281425 9.84517e-20)
(0.234243 0.177372 3.77083e-20)
(1.04851 0.801613 -2.41238e-20)
(1.22988 0.952459 6.27558e-21)
(1.24238 0.980062 8.66361e-21)
(1.19055 0.961091 -9.92758e-21)
(1.12016 0.929121 -1.36196e-19)
(1.04506 0.89447 3.00852e-20)
(0.964553 0.856572 -2.97215e-19)
(0.877813 0.812685 -5.98884e-19)
(0.784464 0.758089 -5.86914e-19)
(0.69848 0.695488 0)
(0.6336 0.634867 -4.09453e-19)
(0.587447 0.579663 5.0532e-19)
(0.550455 0.527014 0)
(0.502613 0.464172 -3.68654e-19)
(0.41716 0.373268 2.20228e-19)
(0.288164 0.251419 -2.59973e-19)
(0.148726 0.126323 -3.07159e-19)
(0.0467658 0.0384069 -5.43476e-19)
(0.00174533 0.00140753 -4.23687e-19)
(0.234899 0.185636 -4.46938e-20)
(1.04117 0.832048 2.58609e-20)
(1.2186 0.987201 5.52719e-20)
(1.2296 1.0149 2.07164e-20)
(1.17741 0.994866 2.492e-20)
(1.10697 0.961793 -7.67487e-20)
(1.03167 0.926272 9.93455e-20)
(0.950538 0.887644 -3.06536e-19)
(0.862452 0.842911 -3.54683e-19)
(0.766661 0.787103 6.14282e-19)
(0.677173 0.722676 1.32998e-18)
(0.608658 0.659297 0)
(0.559546 0.600184 0)
(0.520382 0.541989 -1.66706e-19)
(0.471412 0.47107 0)
(0.386157 0.37012 4.73607e-19)
(0.260137 0.239818 5.59072e-19)
(0.128607 0.113794 0)
(0.0368477 0.0313998 0)
(5.86512e-05 0.000202447 4.55029e-19)
(0.235203 0.193452 5.31031e-20)
(1.03409 0.860871 4.23126e-20)
(1.20754 1.01978 4.12955e-20)
(1.21713 1.04751 -2.96625e-20)
(1.1647 1.0265 1.90591e-20)
(1.0943 0.992482 8.33383e-20)
(1.01891 0.95626 -1.36964e-19)
(0.937227 0.917068 -2.92663e-23)
(0.847894 0.871706 -5.01848e-21)
(0.749747 0.81505 -5.28747e-21)
(0.656702 0.749308 6.84491e-19)
(0.584177 0.683569 0)
(0.531427 0.620602 5.09517e-19)
(0.488976 0.556108 3.55145e-19)
(0.437847 0.475046 8.58478e-19)
(0.353277 0.36103 2.54645e-19)
(0.233565 0.221135 -3.01107e-19)
(0.114608 0.0968895 -1.76842e-19)
(0.0339527 0.0236034 0)
(0.00033989 -0.000218977 4.88638e-19)
(0.235813 0.201275 -1.24403e-19)
(1.02725 0.888187 0)
(1.19672 1.05026 5.3815e-20)
(1.20501 1.07799 -2.8931e-20)
(1.15247 1.0561 -8.65949e-21)
(1.08219 1.02128 -9.6595e-20)
(1.0068 0.984488 2.70232e-19)
(0.924652 0.944874 -2.48054e-20)
(0.834181 0.899078 0)
(0.733804 0.841908 -6.7823e-19)
(0.637216 0.775383 -1.4872e-18)
(0.560355 0.707794 6.02979e-20)
(0.503266 0.641198 7.005e-19)
(0.456074 0.569906 0)
(0.400802 0.47676 5.78282e-19)
(0.316239 0.345387 0)
(0.206569 0.191024 0)
(0.110142 0.0636977 -1.91344e-19)
(0.0578346 0.00393473 0)
(0.0273393 0.0111698 1.30907e-19)
(0.236052 0.208497 -1.42958e-19)
(1.02063 0.914335 0)
(1.18615 1.07884 9.38601e-20)
(1.1932 1.10656 0)
(1.1407 1.08393 -3.15904e-22)
(1.07058 1.04847 0)
(0.995275 1.01126 1.40872e-20)
(0.912721 0.971396 4.22056e-20)
(0.821207 0.925392 4.43569e-20)
(0.718692 0.868066 -7.44321e-19)
(0.618572 0.801329 4.47928e-20)
(0.537018 0.732559 4.83496e-19)
(0.474763 0.662659 6.82444e-19)
(0.420957 0.584227 9.17739e-20)
(0.358432 0.477853 4.52346e-19)
(0.270471 0.324655 0)
(0.167764 0.147473 6.34941e-19)
(0.0869717 0.00734718 -3.71991e-19)
(0.0433581 0.0442918 4.31275e-19)
(-0.0692463 0.432365 -5.08827e-19)
(0.236278 0.215521 1.20668e-19)
(1.01397 0.939094 1.80262e-19)
(1.17575 1.10584 0)
(1.18159 1.13366 5.19927e-21)
(1.1292 1.11056 1.14655e-20)
(1.05923 1.07474 1.32844e-19)
(0.984045 1.03738 9.60138e-20)
(0.901045 0.997573 0)
(0.808463 0.951738 2.96559e-19)
(0.703762 0.894815 -3.91363e-20)
(0.599876 0.828586 0)
(0.513003 0.75958 0)
(0.444345 0.686699 6.09633e-19)
(0.381772 0.600349 -2.82908e-19)
(0.307721 0.480838 -4.56876e-19)
(0.211085 0.303724 0)
(0.0973459 0.140182 3.19507e-19)
(0.00584486 0.438095 -3.70243e-19)
(0.0347363 1.88192 -2.03767e-19)
(0.0644326 2.80708 -2.59859e-19)
(0.236333 0.221708 -9.33512e-20)
(1.00748 0.962653 -2.36453e-19)
(1.16553 1.13125 5.87969e-20)
(1.17016 1.15917 3.97657e-20)
(1.11801 1.13577 0)
(1.04819 1.0998 8.06961e-20)
(0.973292 1.06253 1.34339e-19)
(0.889804 1.02297 -2.06492e-20)
(0.796211 0.977599 4.40813e-20)
(0.689391 0.92155 7.10091e-19)
(0.581726 0.856501 7.50853e-19)
(0.489278 0.788457 5.39626e-19)
(0.412997 0.713174 6.11346e-19)
(0.340323 0.617069 -6.61338e-19)
(0.254608 0.48871 -6.87694e-19)
(0.139317 0.334514 0)
(0.0485244 0.829159 0)
(0.104754 2.54633 1.77106e-19)
(0.105715 3.1977 0)
(0.108733 3.38659 4.2591e-19)
(0.238945 0.227361 0)
(1.00176 0.985197 0)
(1.15529 1.15493 0)
(1.15871 1.18288 1.36451e-20)
(1.10682 1.15933 1.43876e-20)
(1.03724 1.12351 4.49126e-20)
(0.962911 1.08659 8.74739e-20)
(0.878951 1.04747 -2.02789e-20)
(0.784416 1.00284 3.72674e-19)
(0.675615 0.948134 -9.62926e-21)
(0.564285 0.884974 1.48347e-18)
(0.466215 0.819044 -6.1914e-20)
(0.381059 0.743008 7.40524e-20)
(0.299126 0.63185 9.52711e-20)
(0.192218 0.505922 -3.04026e-21)
(0.107221 0.962178 1.80106e-21)
(0.144952 2.70856 -9.22846e-19)
(0.154532 3.29005 -3.48866e-19)
(0.142521 3.42602 1.82269e-19)
(0.128785 3.44857 -2.03513e-19)
(0.156903 0.183917 5.73605e-20)
(0.990726 1.00946 0)
(1.14468 1.17712 -1.26994e-19)
(1.14779 1.20525 -1.1755e-19)
(1.09648 1.18206 6.06783e-20)
(1.02732 1.14655 -4.13812e-20)
(0.952849 1.10963 -9.15495e-20)
(0.868607 1.07119 2.32079e-19)
(0.773269 1.02758 -3.06476e-19)
(0.66274 0.974695 0)
(0.547953 0.914204 7.29945e-19)
(0.444425 0.851223 -4.3987e-19)
(0.349006 0.779218 0)
(0.255417 0.648736 8.85294e-20)
(0.157675 0.793134 2.11855e-19)
(0.159766 2.47509 -2.50775e-19)
(0.220612 3.3229 2.82677e-19)
(0.19918 3.44068 1.53441e-19)
(0.165261 3.46231 1.73895e-19)
(0.14274 3.4726 2.7868e-19)
(0.282105 0.266014 -1.03027e-19)
(0.975422 1.01933 0)
(1.1261 1.20209 1.43332e-19)
(1.133 1.23702 1.40926e-19)
(1.07965 1.21505 -8.40141e-20)
(1.01014 1.18022 1.61998e-20)
(0.934954 1.14506 9.52282e-20)
(0.850221 1.10786 1.80522e-20)
(0.753479 1.06616 2.95619e-19)
(0.640079 1.01666 6.17974e-19)
(0.520068 0.961825 4.14538e-20)
(0.407457 0.905281 3.91227e-19)
(0.292367 0.835476 6.92058e-20)
(0.217598 0.963137 -8.70812e-20)
(0.233821 2.3242 -1.99657e-19)
(0.296551 3.32666 1.94191e-19)
(0.279777 3.47185 -2.1616e-19)
(0.243791 3.49344 -1.2548e-19)
(0.205966 3.52093 -1.08231e-19)
(0.153989 3.51449 -1.26868e-20)
(0.270048 0.262916 0)
(0.973018 1.04201 4.51666e-20)
(1.11781 1.22537 -3.07608e-20)
(1.12265 1.26038 -1.81427e-20)
(1.06921 1.23822 -6.56361e-20)
(0.999896 1.20376 -9.59378e-21)
(0.924481 1.16889 -5.28229e-20)
(0.839591 1.13248 1.63784e-20)
(0.74235 1.09209 -3.09683e-19)
(0.627758 1.04513 -1.41439e-20)
(0.505309 0.9947 -1.32417e-18)
(0.38876 0.943566 5.55962e-20)
(0.280988 0.903619 -6.5496e-20)
(0.258149 1.48348 -8.09123e-20)
(0.334042 3.09234 1.77595e-20)
(0.355729 3.47004 7.6465e-22)
(0.31481 3.52722 3.19944e-19)
(0.27702 3.55282 1.58918e-19)
(0.227906 3.57627 -4.3948e-20)
(0.168301 3.57202 -6.15044e-20)
(0.253715 0.261341 1.17841e-19)
(0.96903 1.06733 3.1218e-19)
(1.10903 1.25076 -8.88763e-20)
(1.1117 1.28514 -6.85573e-20)
(1.0582 1.26274 0)
(0.989218 1.22849 2.06313e-20)
(0.913863 1.19398 -6.10749e-20)
(0.829085 1.15832 1.45942e-20)
(0.731668 1.11932 -3.43037e-20)
(0.616412 1.07512 -5.64534e-19)
(0.492321 1.02941 -6.13505e-19)
(0.373575 0.984257 -4.59089e-19)
(0.281376 1.03323 -4.95621e-19)
(0.326454 2.18036 5.1113e-19)
(0.420467 3.37692 4.32428e-19)
(0.399887 3.52919 0)
(0.353771 3.57354 0)
(0.315441 3.61452 -3.47643e-20)
(0.263484 3.67528 0)
(0.180371 3.65088 -4.31498e-20)
(0.242911 0.263224 -1.8044e-19)
(0.963072 1.09373 -2.69958e-19)
(1.09881 1.27733 0)
(1.09938 1.31067 6.18186e-21)
(1.04593 1.28789 -8.5141e-20)
(0.977414 1.25374 5.55083e-20)
(0.902453 1.21963 -3.01003e-20)
(0.817989 1.1846 9.45982e-21)
(0.720634 1.14689 -2.24111e-19)
(0.605107 1.1054 2.87034e-20)
(0.480196 1.06453 0)
(0.360706 1.02844 0)
(0.306988 1.28127 -4.55309e-19)
(0.409265 2.85851 1.85953e-19)
(0.492552 3.48744 2.41167e-19)
(0.445855 3.56235 0)
(0.405463 3.62487 -2.15065e-20)
(0.369918 3.68521 -3.49619e-20)