/*--------------------------------*- C++ -*----------------------------------*\
  =========                 |
  \\      /  F ield         | OpenFOAM: The Open Source CFD Toolbox
   \\    /   O peration     | Website:  https://openfoam.org
    \\  /    A nd           | Version:  9
     \\/     M anipulation  |
\*---------------------------------------------------------------------------*/
FoamFile
{
    format      ascii;
    class       volScalarField;
    location    "35";
    object      p;
}
// * * * * * * * * * * * * * * * * * * * * * * * * * * * * * * * * * * * * * //

dimensions      [0 2 -2 0 0 0 0];

internalField   nonuniform List<scalar> 
8800
(
0.977392
0.929603
0.890908
0.861906
0.841031
0.826183
0.815561
0.808048
0.803185
0.801068
0.802256
0.806384
0.812977
0.822252
0.835002
0.852717
0.877481
0.911412
0.953953
1.01265
0.808653
0.816331
0.823794
0.827098
0.825587
0.820496
0.813992
0.80789
0.803127
0.800226
0.799873
0.802301
0.806726
0.812623
0.819357
0.82561
0.829232
0.828485
0.823052
0.814354
0.787076
0.793235
0.797357
0.800292
0.802328
0.802914
0.801783
0.799644
0.797576
0.796595
0.797475
0.799781
0.802519
0.804652
0.805222
0.803995
0.801631
0.798223
0.793657
0.789894
0.781306
0.783954
0.786699
0.789093
0.790714
0.791855
0.792567
0.792643
0.79229
0.79216
0.792819
0.793904
0.794672
0.79468
0.794025
0.792898
0.791055
0.788463
0.786048
0.784544
0.775979
0.777402
0.779176
0.781197
0.782967
0.784285
0.785242
0.785992
0.78654
0.787012
0.787555
0.787948
0.787962
0.787604
0.786849
0.785554
0.78382
0.781943
0.780621
0.77979
0.770973
0.771892
0.773128
0.774685
0.776302
0.777803
0.779053
0.780068
0.780955
0.781739
0.782298
0.782501
0.782352
0.781822
0.780867
0.779604
0.778227
0.776929
0.776089
0.775539
0.766156
0.766824
0.767783
0.769079
0.770474
0.771909
0.773312
0.774578
0.775689
0.776668
0.77733
0.777543
0.777321
0.776693
0.775787
0.774756
0.773674
0.7727
0.772094
0.771692
0.761489
0.762004
0.762786
0.763912
0.765177
0.766529
0.767938
0.76935
0.770679
0.771862
0.772675
0.772951
0.772745
0.772204
0.77147
0.770634
0.769769
0.76902
0.768563
0.768251
0.756904
0.757312
0.757968
0.758974
0.76017
0.761475
0.762879
0.764365
0.765873
0.767291
0.768298
0.768707
0.768644
0.768276
0.767725
0.767065
0.766374
0.7658
0.765451
0.765201
0.75233
0.75266
0.753229
0.754162
0.755314
0.756603
0.758031
0.759593
0.761254
0.762916
0.764183
0.764829
0.764993
0.76483
0.764462
0.763981
0.763442
0.763006
0.762739
0.762534
0.747693
0.747963
0.748472
0.749363
0.750499
0.751811
0.753303
0.754982
0.756829
0.758768
0.760369
0.761332
0.761765
0.761827
0.76165
0.761339
0.760954
0.760636
0.760433
0.760261
0.742919
0.743141
0.743611
0.744494
0.745659
0.747041
0.748645
0.750504
0.752617
0.75491
0.756923
0.758251
0.75898
0.759286
0.759311
0.759162
0.758913
0.758694
0.758546
0.758401
0.737947
0.738129
0.738578
0.739479
0.740713
0.742202
0.743962
0.746053
0.7485
0.751248
0.753762
0.755531
0.756615
0.757208
0.757465
0.757486
0.757375
0.757249
0.757147
0.757022
0.732703
0.732851
0.733295
0.734238
0.735573
0.737208
0.739174
0.741565
0.744434
0.747754
0.750885
0.753183
0.754699
0.755636
0.756165
0.756388
0.756415
0.756378
0.756318
0.756208
0.727106
0.727223
0.72767
0.728674
0.73014
0.731972
0.734221
0.736993
0.740367
0.744366
0.74827
0.751257
0.75331
0.754638
0.755449
0.755917
0.756106
0.756166
0.756149
0.756054
0.721055
0.721127
0.721591
0.722687
0.724344
0.726439
0.72905
0.732331
0.736409
0.741306
0.746135
0.749883
0.752535
0.754341
0.755516
0.756219
0.756602
0.756767
0.756793
0.756707
0.714395
0.714465
0.714944
0.716133
0.71798
0.720371
0.723413
0.727285
0.732161
0.738115
0.744103
0.748863
0.752318
0.754738
0.75638
0.757441
0.758058
0.758344
0.758412
0.758333
0.706888
0.706937
0.707464
0.708763
0.710879
0.713677
0.717297
0.721975
0.727921
0.735225
0.742614
0.74853
0.752862
0.755982
0.758218
0.759707
0.76062
0.761058
0.76117
0.761092
0.698258
0.698287
0.698874
0.700337
0.702779
0.706087
0.710427
0.716095
0.723357
0.732323
0.741424
0.748769
0.754228
0.758215
0.76114
0.763141
0.764422
0.765037
0.76519
0.765104
0.688006
0.688029
0.688702
0.690401
0.69328
0.697261
0.702548
0.709505
0.718436
0.729453
0.740642
0.749685
0.756451
0.761457
0.765186
0.767818
0.769523
0.770328
0.770517
0.770415
0.675464
0.675491
0.67631
0.678375
0.681897
0.686829
0.693413
0.702084
0.713172
0.726747
0.740415
0.751432
0.759705
0.76588
0.770503
0.77383
0.775983
0.776979
0.777202
0.777078
0.659806
0.65984
0.660887
0.663517
0.667982
0.674249
0.682601
0.693534
0.707356
0.724057
0.740691
0.754021
0.76402
0.771519
0.777186
0.781277
0.783897
0.785084
0.785337
0.785188
0.639903
0.639951
0.641359
0.644878
0.650777
0.658993
0.669838
0.683812
0.701134
0.721636
0.741718
0.757662
0.769615
0.778601
0.785402
0.790322
0.793435
0.794807
0.795083
0.794908
0.614037
0.614124
0.616155
0.621126
0.629299
0.640396
0.654784
0.672812
0.694527
0.719565
0.743594
0.762465
0.77657
0.787208
0.795258
0.801127
0.804756
0.806295
0.80658
0.806373
0.579254
0.579477
0.582788
0.590401
0.602346
0.6179
0.637311
0.660685
0.687818
0.718136
0.746563
0.768599
0.785018
0.797436
0.806901
0.813777
0.817915
0.819579
0.819845
0.8196
0.529755
0.530861
0.537499
0.550538
0.569007
0.591398
0.617737
0.647882
0.681429
0.717665
0.750818
0.776172
0.794997
0.809287
0.820269
0.828203
0.832797
0.83453
0.834739
0.834446
0.456478
0.464
0.479347
0.502505
0.530675
0.562194
0.597033
0.635013
0.675738
0.718495
0.756848
0.785927
0.807526
0.82405
0.836844
0.846005
0.851232
0.853184
0.853434
0.853196
0.377782
0.395127
0.419892
0.453658
0.491945
0.532805
0.576273
0.622343
0.670724
0.720825
0.765513
0.799471
0.824867
0.844448
0.859702
0.87062
0.876682
0.878849
0.879172
0.879117
0.312694
0.332906
0.365502
0.408055
0.455204
0.504838
0.556638
0.610596
0.66644
0.723607
0.77429
0.812776
0.841613
0.863811
0.880871
0.892843
0.899585
0.902381
0.902738
0.90275
0.259584
0.281532
0.319392
0.368197
0.422306
0.479239
0.538367
0.599545
0.662361
0.726215
0.782482
0.825028
0.856744
0.880926
0.899317
0.912436
0.920335
0.92305
0.923517
0.923594
0.215645
0.23862
0.280053
0.333715
0.393389
0.456312
0.521704
0.589265
0.658428
0.728433
0.789821
0.835945
0.870079
0.895918
0.915539
0.929531
0.937991
0.941101
0.941764
0.941877
0.178334
0.201918
0.246028
0.303449
0.367644
0.435631
0.506461
0.579677
0.654575
0.730218
0.79625
0.845541
0.881736
0.908928
0.929463
0.944098
0.952986
0.956553
0.957377
0.957502
0.145632
0.169628
0.215793
0.276258
0.344225
0.416565
0.492185
0.570494
0.650637
0.731473
0.801776
0.853895
0.891847
0.920109
0.941292
0.956384
0.965559
0.969441
0.970399
0.970527
0.11601
0.140405
0.188215
0.251229
0.322429
0.398551
0.478448
0.561387
0.646375
0.732082
0.806398
0.861148
0.900676
0.929861
0.951541
0.966961
0.97633
0.980418
0.981409
0.981498
0.0885056
0.113271
0.162543
0.227734
0.301722
0.381177
0.464907
0.552079
0.641594
0.73193
0.810123
0.867426
0.908465
0.938505
0.96064
0.976261
0.985723
0.989893
0.990929
0.99098
0.0623313
0.0875246
0.138216
0.205266
0.281728
0.364139
0.451325
0.542384
0.63614
0.730927
0.812954
0.872833
0.915431
0.946341
0.968927
0.984742
0.994233
0.998393
0.9995
0.999564
0.0371848
0.0628163
0.114533
0.183505
0.26217
0.347236
0.437544
0.532174
0.629911
0.729008
0.81489
0.877466
0.921743
0.95363
0.976724
0.992744
1.00227
1.00637
1.00742
1.00745
0.0126723
0.0388958
0.0916218
0.162237
0.242877
0.330328
0.423467
0.521372
0.622839
0.726113
0.81592
0.881378
0.927528
0.960537
0.984241
1.00052
1.01008
1.01412
1.01504
1.015
-0.0113007
0.0154047
0.0692641
0.141341
0.223761
0.313352
0.409044
0.509945
0.614891
0.722209
0.816018
0.884591
0.932856
0.967167
0.991593
1.00817
1.01772
1.02163
1.02243
1.02231
-0.0348177
-0.00753812
0.0473253
0.120756
0.204789
0.296295
0.394273
0.497888
0.606058
0.717256
0.81512
0.88706
0.937734
0.973578
0.998831
1.01571
1.02518
1.02887
1.02951
1.02932
-0.0579532
-0.0300457
0.0257688
0.10047
0.185952
0.279171
0.379189
0.485239
0.596356
0.711224
0.813142
0.888696
0.942148
0.979817
1.00602
1.02316
1.03244
1.03581
1.03629
1.03605
-0.0806935
-0.0521006
0.0046494
0.0805095
0.167296
0.262023
0.363846
0.472053
0.585821
0.704093
0.810008
0.889398
0.946023
0.985916
1.01327
1.03058
1.03946
1.04239
1.04267
1.0424
-0.102866
-0.0736284
-0.0159873
0.0609186
0.148867
0.244926
0.348314
0.458413
0.574523
0.695897
0.805657
0.889028
0.949216
0.99187
1.02074
1.03814
1.04626
1.0485
1.04856
1.04827
-0.124432
-0.094585
-0.0361098
0.0417566
0.130732
0.227946
0.332691
0.444405
0.56255
0.686679
0.800042
0.887428
0.951532
0.997582
1.02865
1.04631
1.05314
1.05416
1.05388
1.05362
-0.14545
-0.114923
-0.055674
0.0230659
0.112958
0.211169
0.317068
0.430139
0.550006
0.676514
0.793127
0.884454
0.952703
1.00277
1.03708
1.05583
1.06109
1.05985
1.05863
1.05861
-0.165738
-0.134612
-0.0746147
0.0049176
0.0956077
0.19468
0.301541
0.415731
0.537014
0.66551
0.784929
0.87997
0.952418
1.00691
1.04565
1.06735
1.07226
1.06805
1.0642
1.06334
-0.185384
-0.153637
-0.0929463
-0.0127123
0.0786504
0.178431
0.286054
0.401119
0.523502
0.653595
0.775318
0.873714
0.95034
1.00928
1.05327
1.08046
1.08865
1.08439
1.07421
1.05782
-0.204309
-0.171987
-0.110788
-0.0300164
0.0617922
0.162085
0.270184
0.38581
0.508918
0.640108
0.763612
0.864837
0.945801
1.00877
1.05743
1.09143
1.10382
1.0937
1.07561
1.0596
-0.222334
-0.189788
-0.12795
-0.0467564
0.0453381
0.145992
0.254158
0.370137
0.493585
0.625341
0.74996
0.852981
0.938243
1.00433
1.0531
1.08691
1.1028
1.08336
1.01361
0.981153
-0.238797
-0.208221
-0.144104
-0.0623401
0.0300112
0.13065
0.238276
0.354328
0.477727
0.609432
0.734347
0.837952
0.926549
0.995817
1.03615
1.06202
1.06192
1.01155
0.94101
0.897139
-0.295181
-0.224444
-0.158968
-0.0778587
0.01434
0.114641
0.222477
0.338111
0.460987
0.59196
0.716235
0.819347
0.907296
0.983691
0.988786
1.00142
0.963886
0.898645
0.822308
0.779417
-0.256551
-0.24046
-0.180704
-0.0998224
-0.00846297
0.0915872
0.198431
0.31326
0.43491
0.564056
0.685697
0.78635
0.865688
0.943003
0.938285
0.833352
0.731201
0.660062
0.587139
0.62114
-0.28806
-0.258579
-0.197891
-0.11763
-0.0261978
0.0735287
0.18056
0.294686
0.415166
0.542328
0.660865
0.757373
0.82905
0.869511
0.825212
0.682354
0.55607
0.465766
0.366464
0.419897
-0.312383
-0.279948
-0.217982
-0.137425
-0.0459023
0.053688
0.160581
0.273808
0.392797
0.517436
0.632109
0.722953
0.78499
0.793969
0.691827
0.519733
0.366283
0.246531
0.114657
0.14948
-0.336207
-0.302204
-0.239016
-0.157591
-0.0658762
0.0335901
0.139952
0.252163
0.369486
0.491278
0.601314
0.68581
0.732693
0.710421
0.555402
0.358095
0.165191
-0.00855604
-0.203069
-0.216214
-0.359379
-0.324961
-0.260864
-0.178677
-0.0867288
0.0125643
0.118288
0.229383
0.344813
0.463428
0.568284
0.645556
0.675251
0.618211
0.425834
0.213042
-0.00866774
-0.205179
-0.456413
-0.772499
-0.382845
-0.348428
-0.2838
-0.201087
-0.108891
-0.00971275
0.0954529
0.20542
0.318879
0.43411
0.533622
0.602697
0.614723
0.507069
0.313544
0.101157
-0.107435
-0.284748
-0.351831
-0.442135
-0.407512
-0.373067
-0.308155
-0.225168
-0.132854
-0.0338731
0.0706489
0.17933
0.290525
0.401891
0.495652
0.554731
0.541844
0.400203
0.214459
0.0216912
-0.143112
-0.236768
-0.260863
-0.277714
-0.433706
-0.399198
-0.334098
-0.251
-0.158743
-0.0601152
0.0435369
0.150645
0.259181
0.366065
0.453582
0.500175
0.468345
0.300665
0.124745
-0.0417805
-0.17029
-0.207526
-0.222458
-0.224127
-0.461634
-0.426981
-0.361687
-0.278567
-0.186496
-0.0884301
0.0141174
0.119336
0.224797
0.326637
0.407113
0.440577
0.391249
0.207399
0.0410461
-0.107463
-0.187619
-0.203519
-0.204945
-0.20495
-0.491341
-0.456424
-0.390937
-0.30785
-0.216109
-0.118787
-0.0175904
0.0854133
0.187394
0.283701
0.356145
0.378505
0.294174
0.120963
-0.0369942
-0.159053
-0.193647
-0.195975
-0.196274
-0.195751
-0.522531
-0.487418
-0.421727
-0.338747
-0.247476
-0.151105
-0.0515248
0.0489394
0.147028
0.237372
0.301332
0.306905
0.199407
0.0398938
-0.100468
-0.178955
-0.188637
-0.190881
-0.191646
-0.19147
-0.554628
-0.51942
-0.453795
-0.371019
-0.280384
-0.185195
-0.0874962
0.0100911
0.103923
0.187923
0.243604
0.231806
0.112125
-0.0331237
-0.151897
-0.175078
-0.187667
-0.189791
-0.188988
-0.188618
-0.587191
-0.55194
-0.486651
-0.40426
-0.314461
-0.2207
-0.12518
-0.0307907
0.0584385
0.136008
0.182558
0.159071
0.0273134
-0.102577
-0.190468
-0.219789
-0.200796
-0.19018
-0.187608
-0.186829
-0.619368
-0.58434
-0.519464
-0.437824
-0.34914
-0.2571
-0.164066
-0.0731637
0.0111347
0.0824643
0.119077
0.0906476
-0.0503072
-0.170419
-0.221558
-0.207814
-0.20402
-0.19954
-0.194722
-0.192318
-0.64959
-0.615465
-0.551354
-0.470813
-0.383618
-0.293638
-0.203425
-0.116258
-0.0370928
0.0279403
0.0585556
0.0186008
-0.115194
-0.247004
-0.296174
-0.274051
-0.235664
-0.211194
-0.202433
-0.199687
-0.676438
-0.643224
-0.581223
-0.502093
-0.416844
-0.329306
-0.242279
-0.159098
-0.0849806
-0.0266515
0.00443219
-0.0540427
-0.164803
-0.283098
-0.329075
-0.296269
-0.261747
-0.24068
-0.233094
-0.229982
-0.697914
-0.666539
-0.60693
-0.530249
-0.447505
-0.362891
-0.279381
-0.200468
-0.131165
-0.0797988
-0.0470222
-0.112393
-0.189759
-0.215122
-0.292994
-0.320673
-0.360707
-0.373412
-0.364626
-0.356133
-0.712037
-0.683297
-0.626951
-0.553484
-0.474025
-0.392948
-0.313309
-0.238825
-0.174409
-0.129133
-0.0973608
-0.166337
-0.212724
-0.199835
-0.247454
-0.436956
-0.554461
-0.575797
-0.559632
-0.554604
-0.716341
-0.691503
-0.639462
-0.570084
-0.494674
-0.417793
-0.342392
-0.27238
-0.213265
-0.172981
-0.145663
-0.248532
-0.347156
-0.424641
-0.467663
-0.552358
-0.625134
-0.634615
-0.638412
-0.641234
-0.709174
-0.688898
-0.64246
-0.578498
-0.507941
-0.43575
-0.364804
-0.299112
-0.24506
-0.210962
-0.200829
-0.366086
-0.518127
-0.456242
-0.367104
-0.559437
-0.729795
-0.738668
-0.741535
-0.741862
-0.688615
-0.672794
-0.634398
-0.577549
-0.512741
-0.445492
-0.378766
-0.316641
-0.26617
-0.238552
-0.255389
-0.44775
-0.744309
-1.00972
-1.18269
-1.42592
-1.32052
-1.09177
-0.947351
-0.944478
-0.656236
-0.645595
-0.615633
-0.567373
-0.508841
-0.446375
-0.383035
-0.322699
-0.272265
-0.245198
-0.269964
-0.490454
-1.06025
-1.90733
-2.49964
-2.74387
-2.59725
-2.17999
-1.82224
-1.63944
-0.616938
-0.610781
-0.589952
-0.550028
-0.497718
-0.438922
-0.377251
-0.316019
-0.2607
-0.224066
-0.239306
-0.402922
-0.760409
-1.16079
-1.48544
-1.62248
-1.51603
-1.28187
-1.05844
-0.945875
-0.577799
-0.57437
-0.562304
-0.5302
-0.482107
-0.425438
-0.363078
-0.297094
-0.232319
-0.170565
-0.130467
-0.0931616
-0.00157159
0.236404
0.528978
0.837993
1.09768
1.27748
1.39056
1.43789
-0.545205
-0.543167
-0.536946
-0.512243
-0.467285
-0.40942
-0.343916
-0.27045
-0.189681
-0.101527
0.00493797
0.147203
0.4989
1.04183
1.63612
2.17126
2.56904
2.80143
2.89912
2.92647
-0.515969
-0.515365
-0.513689
-0.497158
-0.455159
-0.395149
-0.324684
-0.244751
-0.153226
-0.0487861
0.070923
0.196195
0.488096
1.01631
1.57359
2.06903
2.4309
2.64386
2.74415
2.77382
-0.491614
-0.491324
-0.491197
-0.481605
-0.444334
-0.382838
-0.307961
-0.223546
-0.129797
-0.0229034
0.0871189
0.207464
0.381452
0.823093
1.29048
1.69111
1.99764
2.17836
2.2602
2.28306
-0.47033
-0.469111
-0.46881
-0.464866
-0.432873
-0.37007
-0.292125
-0.206197
-0.114002
-0.0103289
0.0952675
0.203673
0.330157
0.611096
0.981471
1.28377
1.511
1.64435
1.70454
1.72024
-0.459901
-0.459379
-0.460921
-0.45759
-0.422666
-0.354063
-0.272808
-0.187446
-0.0982552
-0.000757468
0.093417
0.18246
0.266726
0.456216
0.706336
0.919483
1.07943
1.17263
1.21429
1.22441
-0.446469
-0.449872
-0.454367
-0.447418
-0.404383
-0.32845
-0.245268
-0.163663
-0.0822848
0.00316974
0.0839118
0.154736
0.225353
0.338924
0.507748
0.650788
0.756575
0.818109
0.844336
0.850214
-0.382761
-0.389368
-0.395471
-0.386407
-0.343714
-0.274719
-0.202166
-0.132148
-0.0633614
0.00779428
0.0742084
0.129296
0.181688
0.250407
0.359947
0.454738
0.522917
0.561599
0.577302
0.578187
-0.248245
-0.253237
-0.257674
-0.252285
-0.226148
-0.185324
-0.139067
-0.0903622
-0.0396964
0.0146768
0.0640044
0.102527
0.137936
0.179514
0.248662
0.312551
0.356455
0.381555
0.390875
0.390968
-0.0934859
-0.095778
-0.0996179
-0.10232
-0.0980547
-0.0874767
-0.0691312
-0.0444326
-0.0133759
0.0231379
0.05611
0.0808206
0.102349
0.127546
0.170536
0.211715
0.241155
0.257213
0.26342
0.262658
0.0215588
0.0206202
0.0170081
0.00886522
-0.00238557
-0.00963249
-0.0102015
-0.00300513
0.0121312
0.0334669
0.0529559
0.06519
0.0730506
0.0883758
0.118582
0.146841
0.165766
0.175149
0.178115
0.176999
0.0829966
0.0824049
0.0789507
0.0696162
0.0551324
0.0411962
0.0319295
0.029306
0.0338814
0.0442311
0.0537728
0.0559668
0.0532888
0.064718
0.0890739
0.108551
0.119917
0.124521
0.125496
0.124427
0.106795
0.106286
0.103486
0.0958349
0.0833389
0.0698964
0.0588373
0.0523031
0.0514244
0.0554369
0.0593783
0.0572367
0.0509884
0.0593773
0.077991
0.0916312
0.0984301
0.100569
0.100775
0.0998184
0.111335
0.110901
0.108891
0.103582
0.0946007
0.0841086
0.0744539
0.0676243
0.0647995
0.0663813
0.0692873
0.0685743
0.0659405
0.0753568
0.0878445
0.0946366
0.0972799
0.0978381
0.0976224
0.0968381
0.108001
0.107635
0.10626
0.102878
0.0970279
0.0897596
0.0825454
0.077004
0.0745057
0.0766081
0.0821666
0.0876167
0.092616
0.102202
0.109416
0.111391
0.111429
0.110944
0.110731
0.109913
0.102551
0.102249
0.101307
0.099213
0.0956023
0.0908592
0.0859032
0.0819672
0.0805269
0.0838536
0.0941427
0.109338
0.124613
0.132928
0.132906
0.132298
0.132785
0.133693
0.133688
0.13244
0.0973048
0.0970616
0.0963809
0.0949799
0.0927418
0.0896325
0.0862055
0.0834138
0.082754
0.0870641
0.101068
0.125041
0.149594
0.156596
0.150483
0.14773
0.148907
0.152078
0.152989
0.1516
0.0928113
0.0926137
0.0920787
0.0909494
0.0892164
0.0870543
0.0844521
0.0820843
0.0810814
0.0843643
0.0978014
0.124444
0.152918
0.156991
0.147987
0.147455
0.152156
0.157303
0.158347
0.156423
0.0889684
0.0888153
0.0884054
0.0874108
0.0858797
0.083809
0.0814114
0.0786445
0.0760497
0.075233
0.0812482
0.0994045
0.120985
0.119447
0.11182
0.116014
0.126506
0.134709
0.135076
0.132604
0.0853992
0.0852765
0.0849766
0.0841489
0.082736
0.0807046
0.0777941
0.0743075
0.0692077
0.0618487
0.0531675
0.0490381
0.0481334
0.0414623
0.0435292
0.055238
0.0677627
0.0741743
0.0743062
0.0726621
0.0818451
0.0817616
0.081598
0.0810714
0.0796486
0.0778826
0.0750128
0.0705385
0.0630913
0.0487734
0.0229571
-0.0141693
-0.0515312
-0.05771
-0.0413125
-0.0225497
-0.0110427
-0.00760265
-0.00760496
-0.00849556
0.077839
0.0777944
0.0777973
0.0776949
0.0770367
0.075396
0.0730045
0.0687962
0.0606416
0.0418296
0.00200763
-0.0690384
-0.130477
-0.133397
-0.109618
-0.0937808
-0.0897444
-0.089459
-0.0894852
-0.0899185
0.0731024
0.0730579
0.0731222
0.0731781
0.073258
0.0732404
0.0723871
0.0701208
0.0636879
0.0464973
0.00913133
-0.0673637
-0.132006
-0.135255
-0.128331
-0.136056
-0.148049
-0.15481
-0.153347
-0.151995
0.0673798
0.0674431
0.0679913
0.0690708
0.0704947
0.0721546
0.0736131
0.0741853
0.0729795
0.0626196
0.0374289
-0.0156346
-0.0610424
-0.0797911
-0.097601
-0.130562
-0.159732
-0.172514
-0.172735
-0.171479
0.0588835
0.059056
0.0599301
0.0618384
0.0647189
0.0685568
0.0735535
0.0789233
0.0834672
0.0848398
0.0786573
0.0555721
0.031161
-0.00237528
-0.0479489
-0.0943267
-0.129494
-0.145874
-0.146973
-0.144694
0.0458363
0.0460924
0.0473458
0.0504258
0.0544342
0.0601302
0.067697
0.0776632
0.0887515
0.100425
0.108353
0.108291
0.0995326
0.0543796
0.0025185
-0.0362529
-0.0595883
-0.0718072
-0.0750045
-0.0735578
0.027856
0.0280656
0.0296934
0.0327877
0.0372282
0.0431587
0.0511006
0.0615485
0.076147
0.0911479
0.101804
0.106577
0.104445
0.0611976
0.0246063
0.00866251
0.00563813
-0.00385802
-0.0089397
-0.00883304
0.0066574
0.00629993
0.00568946
0.00475872
0.0053583
0.00667336
0.00809604
0.011015
0.0165138
0.0256524
0.0317937
0.0400373
0.0397649
0.026585
0.0184851
0.0112395
0.00606404
0.00136829
0.00686752
0.00737048
0.0336277
0.209215
0.414373
0.591272
0.733569
0.846811
0.941111
1.02082
1.05649
1.03335
0.353465
0.47969
0.614963
0.732147
0.83133
0.913775
0.980507
1.02775
1.05155
1.06347
0.58227
0.668558
0.760833
0.842661
0.913118
0.972087
1.01892
1.05309
1.07766
1.09548
0.749068
0.810178
0.874898
0.934089
0.985657
1.0294
1.06527
1.0938
1.11712
1.13532
0.878646
0.923441
0.970708
1.01587
1.05578
1.09057
1.12029
1.14496
1.16568
1.18346
0.985324
1.01916
1.0582
1.09466
1.12806
1.15794
1.18401
1.20588
1.22395
1.24128
1.07936
1.10863
1.14326
1.17595
1.20639
1.23397
1.25805
1.27802
1.29368
1.31075
1.1689
1.19847
1.23288
1.26527
1.29519
1.32204
1.34513
1.36378
1.37726
1.3943
1.26482
1.29819
1.33511
1.36893
1.39918
1.42554
1.44763
1.46502
1.47697
1.49438
1.38024
1.4181
1.45691
1.49133
1.52081
1.54566
1.56612
1.58208
1.5936
1.61168
1.52544
1.56409
1.60024
1.631
1.65676
1.67892
1.69803
1.7136
1.72606
1.74407
1.70055
1.73232
1.75854
1.78101
1.80102
1.81978
1.83753
1.85403
1.8694
1.88748
1.88923
1.9065
1.9216
1.93786
1.95378
1.96834
1.98156
1.9955
2.01306
2.03322
2.07111
2.08059
2.09215
2.10297
2.11227
2.12187
2.13268
2.14406
2.15543
2.17079
2.27828
2.28197
2.26703
2.25223
2.24597
2.25166
2.27015
2.30047
2.33265
2.35931
2.58461
2.44975
2.37313
2.33079
2.31337
2.31734
2.34475
2.40116
2.50379
2.72815
0.867989
0.865858
0.861372
0.852741
0.840508
0.828366
0.818119
0.810194
0.804532
0.801218
0.800786
0.80344
0.808475
0.815646
0.824996
0.836508
0.849139
0.860159
0.866264
0.869312
0.792457
0.798302
0.804637
0.809121
0.81158
0.811242
0.808485
0.804645
0.80109
0.798763
0.79853
0.800641
0.804231
0.808463
0.812227
0.81408
0.813121
0.809621
0.804445
0.79782
0.784065
0.78636
0.789759
0.792747
0.794812
0.796292
0.797023
0.796671
0.795595
0.794641
0.794722
0.796053
0.797788
0.799028
0.799158
0.798229
0.796651
0.794292
0.791014
0.788087
0.778595
0.779681
0.781509
0.783879
0.78589
0.787301
0.788295
0.789007
0.789352
0.789494
0.789878
0.790574
0.791077
0.791065
0.79059
0.789693
0.788186
0.786071
0.783964
0.782574
0.773448
0.774111
0.775215
0.776912
0.778681
0.780294
0.781562
0.782532
0.783349
0.784046
0.78465
0.785069
0.785148
0.784886
0.784241
0.783123
0.781644
0.78006
0.778715
0.777928
0.768544
0.769004
0.769787
0.771079
0.772555
0.774054
0.775489
0.776739
0.777801
0.778748
0.779515
0.779921
0.779924
0.779528
0.778729
0.777655
0.776461
0.775275
0.774326
0.773802
0.763808
0.764152
0.764761
0.765825
0.76711
0.768467
0.769875
0.77127
0.772563
0.773717
0.774649
0.775143
0.775139
0.774705
0.773973
0.773086
0.772145
0.771207
0.770493
0.770108
0.759193
0.75946
0.759952
0.76086
0.762024
0.763304
0.764667
0.766101
0.767553
0.768929
0.770065
0.770688
0.770759
0.770435
0.769871
0.769167
0.7684
0.767667
0.767125
0.76683
0.754623
0.754834
0.755243
0.756045
0.757133
0.758366
0.759714
0.761183
0.762744
0.764324
0.7657
0.766529
0.766788
0.766658
0.766281
0.765757
0.765158
0.764591
0.764179
0.763948
0.750028
0.750195
0.750545
0.751278
0.752325
0.753539
0.754909
0.756445
0.758134
0.75993
0.761593
0.76271
0.763229
0.763332
0.763155
0.762808
0.762377
0.761948
0.76164
0.761458
0.74533
0.745463
0.745771
0.746462
0.747498
0.748737
0.750172
0.751822
0.75369
0.75574
0.757751
0.759247
0.760085
0.760445
0.760483
0.760314
0.760037
0.759739
0.759518
0.759373
0.740466
0.740569
0.740847
0.741523
0.742585
0.743895
0.745437
0.747259
0.749388
0.751796
0.754251
0.756177
0.757366
0.758013
0.758286
0.758305
0.758179
0.757997
0.75785
0.757737
0.73537
0.735447
0.735705
0.736387
0.737504
0.738921
0.74061
0.742647
0.745087
0.74793
0.750934
0.753399
0.755032
0.756037
0.756591
0.756828
0.756856
0.756788
0.756708
0.756621
0.729958
0.73001
0.730255
0.730961
0.732163
0.733723
0.735616
0.737941
0.740772
0.74416
0.747839
0.750964
0.753134
0.754559
0.755436
0.75593
0.75614
0.756202
0.756187
0.756123
0.724139
0.724163
0.724405
0.725154
0.726477
0.728229
0.730395
0.733101
0.736454
0.740521
0.745033
0.748978
0.751795
0.753705
0.754944
0.755704
0.756139
0.756335
0.756388
0.756349
0.717814
0.717824
0.718059
0.718851
0.720317
0.722302
0.724802
0.727972
0.731972
0.736917
0.742469
0.747375
0.75097
0.753508
0.755215
0.756303
0.757009
0.757362
0.757488
0.75747
0.710757
0.710738
0.710996
0.711861
0.71349
0.71574
0.718655
0.722408
0.727196
0.733175
0.739995
0.746141
0.750701
0.753977
0.756269
0.757853
0.758886
0.759437
0.759646
0.759646
0.702731
0.702686
0.702962
0.703925
0.705773
0.7084
0.711866
0.716392
0.722238
0.729587
0.737974
0.745537
0.751214
0.755364
0.758347
0.760485
0.761913
0.76271
0.763013
0.763026
0.693348
0.693283
0.693603
0.694705
0.696822
0.699912
0.704061
0.709542
0.716665
0.725654
0.735967
0.745325
0.752399
0.757626
0.761467
0.764268
0.76619
0.767281
0.767683
0.767699
0.682018
0.681935
0.682333
0.683649
0.686163
0.68991
0.695007
0.701788
0.710619
0.721727
0.734385
0.745826
0.754483
0.76094
0.765742
0.769296
0.771777
0.773175
0.773674
0.773691
0.66799
0.667887
0.668416
0.670073
0.673181
0.677863
0.684262
0.692775
0.703798
0.71754
0.733049
0.74697
0.757491
0.765373
0.771272
0.775669
0.778762
0.780479
0.781071
0.781084
0.650304
0.650181
0.650921
0.653101
0.657106
0.663161
0.671401
0.68228
0.696179
0.713219
0.732138
0.748929
0.761577
0.771043
0.778202
0.783542
0.78727
0.789307
0.789989
0.789998
0.627572
0.627439
0.628533
0.631543
0.636954
0.645063
0.655968
0.670103
0.687745
0.708858
0.731793
0.751859
0.76688
0.778141
0.786672
0.793038
0.797476
0.799845
0.800605
0.800601
0.597558
0.597457
0.599196
0.603628
0.611362
0.622686
0.637524
0.656131
0.678589
0.70463
0.732197
0.755905
0.773531
0.786742
0.796775
0.804328
0.809508
0.812185
0.813
0.812974
0.556156
0.556233
0.559395
0.566768
0.578726
0.595301
0.615936
0.640575
0.669051
0.70089
0.733634
0.76127
0.781645
0.796924
0.808591
0.817425
0.823359
0.826267
0.827095
0.827034
0.49557
0.496816
0.504527
0.518387
0.538089
0.562983
0.591738
0.624075
0.659699
0.69804
0.736327
0.768045
0.791243
0.808642
0.821989
0.832089
0.838682
0.841765
0.84251
0.842403
0.423125
0.425104
0.439728
0.463622
0.494222
0.528884
0.56657
0.607187
0.650556
0.696182
0.741059
0.778045
0.805188
0.825695
0.841444
0.853138
0.860768
0.864273
0.865212
0.86521
0.348575
0.355149
0.376549
0.410551
0.45133
0.495567
0.542164
0.591098
0.642286
0.695307
0.746959
0.789427
0.820705
0.844502
0.862932
0.876658
0.885355
0.888603
0.889441
0.889597
0.288298
0.296827
0.322932
0.363819
0.41241
0.464708
0.519282
0.575961
0.634576
0.694655
0.75274
0.800295
0.83525
0.861758
0.882054
0.897028
0.906229
0.91038
0.911889
0.912138
0.239338
0.24842
0.277984
0.323842
0.378412
0.437169
0.498432
0.561921
0.627278
0.693926
0.757986
0.810162
0.848289
0.87696
0.898797
0.914925
0.925261
0.930116
0.931918
0.932214
0.198516
0.207804
0.239667
0.289295
0.348631
0.412673
0.479602
0.549024
0.620412
0.693038
0.762585
0.818899
0.859768
0.890284
0.913387
0.930415
0.941657
0.947078
0.949103
0.949417
0.163294
0.172656
0.206234
0.258871
0.322016
0.390488
0.462329
0.536992
0.613818
0.691915
0.766486
0.82654
0.869783
0.901807
0.92587
0.943647
0.95536
0.961294
0.963463
0.963805
0.131987
0.141379
0.176245
0.231367
0.297681
0.36993
0.446076
0.525441
0.607234
0.690386
0.769637
0.833132
0.878502
0.911802
0.936623
0.95487
0.966923
0.973208
0.975488
0.97585
0.103303
0.112749
0.148717
0.205935
0.274929
0.350449
0.430407
0.514023
0.600385
0.688281
0.771975
0.838752
0.886122
0.920587
0.946073
0.964657
0.976963
0.983424
0.9857
0.98608
0.0763856
0.0858853
0.12286
0.181894
0.25326
0.331651
0.415002
0.502476
0.593073
0.685455
0.773451
0.843461
0.892816
0.928429
0.954542
0.973446
0.98586
0.992413
0.99468
0.994964
0.0506723
0.0602934
0.0981961
0.158759
0.232304
0.313248
0.399645
0.490631
0.585153
0.6818
0.774019
0.847308
0.898737
0.935578
0.962361
0.981593
0.99415
1.00067
1.00293
1.00316
0.0257394
0.0355679
0.0742689
0.136359
0.211806
0.295045
0.384191
0.478373
0.57654
0.677245
0.77364
0.850333
0.903995
0.942211
0.969771
0.989385
1.00208
1.00858
1.01075
1.01098
0.00137854
0.0114459
0.05094
0.114489
0.191636
0.276928
0.368551
0.465644
0.567175
0.671742
0.772283
0.852537
0.908667
0.948448
0.976921
0.997002
1.00985
1.0163
1.01834
1.01853
-0.0224651
-0.0121595
0.028182
0.0930144
0.171716
0.258858
0.352697
0.45242
0.557044
0.665255
0.7699
0.853896
0.91276
0.954349
0.983891
1.0045
1.01747
1.02379
1.02567
1.02578
-0.0458991
-0.0352578
0.00582414
0.0718974
0.15202
0.24082
0.336639
0.438722
0.546162
0.657781
0.766432
0.854326
0.916236
0.959942
0.990739
1.01191
1.02496
1.03107
1.03272
1.03274
-0.0688687
-0.057928
-0.016059
0.0511403
0.132561
0.222843
0.320422
0.424599
0.534567
0.649318
0.761825
0.853725
0.919021
0.965229
0.997537
1.01931
1.03228
1.03803
1.03941
1.03933
-0.0913954
-0.0801245
-0.0374425
0.030792
0.113379
0.204972
0.3041
0.410122
0.522324
0.639899
0.756047
0.852001
0.920984
0.970155
1.00437
1.02683
1.03949
1.04463
1.04564
1.04549
-0.113278
-0.101752
-0.0582919
0.0108999
0.0945362
0.18729
0.287749
0.395371
0.509517
0.629595
0.749092
0.849049
0.921956
0.974595
1.01133
1.03475
1.04683
1.05088
1.05134
1.05111
-0.134647
-0.122759
-0.0785672
-0.00849923
0.0760748
0.169844
0.271466
0.380437
0.496245
0.618502
0.74098
0.844762
0.921734
0.978312
1.01836
1.04351
1.05496
1.05715
1.0565
1.05613
-0.155325
-0.143109
-0.0982257
-0.0273456
0.0580803
0.152723
0.255338
0.365445
0.482626
0.606696
0.731767
0.839065
0.920108
0.980939
1.02516
1.05341
1.06515
1.06496
1.06177
1.06032
-0.175365
-0.162838
-0.117208
-0.0455792
0.0405974
0.135998
0.23945
0.350479
0.468778
0.594324
0.721546
0.831901
0.916885
0.982008
1.03094
1.06398
1.07859
1.07783
1.07058
1.06081
-0.194679
-0.181899
-0.13561
-0.0633516
0.023415
0.119384
0.223457
0.335123
0.454231
0.580857
0.709748
0.822638
0.911477
0.980913
1.03453
1.07371
1.09458
1.09683
1.08718
1.07872
-0.21321
-0.200206
-0.153426
-0.0806173
0.00654772
0.102877
0.207382
0.319362
0.43895
0.566192
0.696209
0.810947
0.903211
0.976909
1.03348
1.07705
1.10091
1.10841
1.07166
1.01827
-0.230672
-0.21698
-0.170545
-0.0973092
-0.0101077
0.0863435
0.19118
0.303318
0.423
0.550402
0.68089
0.79669
0.891116
0.96968
1.02582
1.06282
1.08771
1.07647
1.0196
0.95497
-0.247393
-0.232791
-0.186778
-0.11279
-0.0262112
0.0702647
0.174628
0.287052
0.406529
0.533663
0.66382
0.779738
0.874122
0.960349
1.00993
1.06187
1.03269
0.99173
0.922278
0.853897
-0.233512
-0.215391
-0.166473
-0.0880669
0.00353396
0.103855
0.213618
0.328993
0.451496
0.581942
0.705628
0.808327
0.894386
0.98618
1.03373
0.954155
0.909363
0.847024
0.77428
0.726032