/*--------------------------------*- C++ -*----------------------------------*\
  =========                 |
  \\      /  F ield         | OpenFOAM: The Open Source CFD Toolbox
   \\    /   O peration     | Website:  https://openfoam.org
    \\  /    A nd           | Version:  9
     \\/     M anipulation  |
\*---------------------------------------------------------------------------*/
FoamFile
{
    format      ascii;
    class       surfaceScalarField;
    location    "35";
    object      phi;
}
// * * * * * * * * * * * * * * * * * * * * * * * * * * * * * * * * * * * * * //

dimensions      [0 3 -1 0 0 0 0];

internalField   nonuniform List<scalar> 
17370
(
-0.0916071
0.0960065
0.284611
-0.0775898
0.0594131
0.364952
-0.0430348
0.0316153
0.427588
-0.0223101
0.0162553
0.505306
-0.0116587
0.00878101
0.60228
-0.00656649
0.00508228
0.720542
-0.00385245
0.00298343
0.863776
-0.0022251
0.00165902
1.03602
-0.00113756
0.000722758
1.24292
-0.000315079
-8.02256e-05
1.49159
0.000466541
-0.000869605
1.49159
0.00127316
-0.00178184
1.2432
0.00233751
-0.00308614
1.03639
0.00394834
-0.00517149
0.86413
0.00664847
-0.00885299
0.721262
0.01172
-0.0163032
0.603798
0.0223452
-0.0316366
0.508731
0.0430413
-0.0594099
0.432537
0.0775882
-0.0960039
0.365191
0.091619
0.197392
-0.127086
0.0880167
0.0390697
-0.36435
0.354023
-0.0714799
0.0818063
-0.446655
0.454246
-0.0791696
0.071579
-0.521008
0.529105
-0.0637302
0.0556332
-0.612986
0.620756
-0.0482461
0.0404757
-0.727159
0.733678
-0.0338627
0.0273429
-0.867579
0.872417
-0.022145
0.0173065
-1.03856
1.04189
-0.0136248
0.0103033
-1.24471
1.24711
-0.00776466
0.00536812
-1.49284
1.49484
-0.00341097
0.00140662
-1.49269
1.4945
0.000402722
-0.00221066
-1.24411
1.24602
0.00417849
-0.00609025
-1.03761
1.0401
0.00843417
-0.0109253
-0.866189
0.86983
0.0141977
-0.0178383
-0.724598
0.729759
0.0226346
-0.0277948
-0.609069
0.615644
0.034273
-0.0408472
-0.515126
0.52247
0.0485743
-0.0559184
-0.43988
0.447669
0.0639526
-0.0717414
-0.374713
0.377361
0.0792483
-0.0818959
-0.256907
0.224453
0.0715494
-0.0390956
-0.0687988
0.059184
0.00961487
-0.0521254
0.0589621
-0.37483
0.367994
-0.0581185
0.0542803
-0.453938
0.457776
-0.0487955
0.0442376
-0.527604
0.532162
-0.0396874
0.0357908
-0.620786
0.624682
-0.0315794
0.0275929
-0.734647
0.738633
-0.0232558
0.0193928
-0.873945
0.877808
-0.0153746
0.0119373
-1.04335
1.04678
-0.00843462
0.00541408
-1.24863
1.25165
-0.00221801
-0.000754403
-1.49693
1.4999
0.00370662
-0.00684588
-1.49741
1.50055
0.00978807
-0.0131943
-1.25007
1.25348
0.0165416
-0.0204645
-1.04566
1.04958
0.0242481
-0.0285038
-0.877151
0.881407
0.0324172
-0.0365482
-0.738999
0.74313
0.0403744
-0.0448552
-0.625988
0.630468
0.0493575
-0.0547889
-0.53503
0.540462
0.0585671
-0.0593393
-0.458093
0.458865
0.0524066
-0.0320395
-0.336791
0.316424
0.00966544
-0.0686805
0.059015
-0.0533915
0.049277
0.00411449
-0.0332657
0.0437
-0.358536
0.348102
-0.0473841
0.0468032
-0.45956
0.460141
-0.0438793
0.0406691
-0.536109
0.539319
-0.0369942
0.0336435
-0.628368
0.631719
-0.03002
0.0267969
-0.742006
0.745229
-0.0233719
0.0202016
-0.881304
0.884474
-0.0166362
0.0133044
-1.0502
1.05353
-0.00962529
0.00623864
-1.2549
1.25829
-0.00246966
-0.00112632
-1.50325
1.50684
0.00469465
-0.00838276
-1.50405
1.50774
0.0116607
-0.0152006
-1.25704
1.26058
0.0183987
-0.0218198
-1.05329
1.05671
0.0248697
-0.0281752
-0.885015
0.88832
0.0312945
-0.034807
-0.746823
0.750335
0.0380576
-0.0416266
-0.634601
0.63817
0.0447468
-0.0475724
-0.544616
0.547441
0.0480535
-0.0442322
-0.456996
0.453175
0.0336317
-0.016349
-0.297132
0.279849
0.00416957
-0.0531742
0.0490046
-0.0461035
0.0435453
0.00255819
-0.0230682
0.03343
-0.337496
0.327134
-0.0391752
0.040133
-0.459877
0.45892
-0.038891
0.0365704
-0.541959
0.544279
-0.0339352
0.0313962
-0.634664
0.637203
-0.0284324
0.0256071
-0.748304
0.75113
-0.0224058
0.0194291
-0.88753
0.890507
-0.0161155
0.0130125
-1.0567
1.0598
-0.00948882
0.00611765
-1.26166
1.26503
-0.00223425
-0.00154427
-1.51056
1.51433
0.00528764
-0.00906453
-1.51152
1.5153
0.012294
-0.0156339
-1.26405
1.26739
0.0185579
-0.0216767
-1.05992
1.06304
0.0244889
-0.0275269
-0.89152
0.894558
0.0302116
-0.0330251
-0.753524
0.756337
0.0354286
-0.0379218
-0.641137
0.64363
0.0401232
-0.0412143
-0.549291
0.550382
0.0401028
-0.0341369
-0.448078
0.442112
0.0235355
-0.0103332
-0.264701
0.251499
0.00262633
-0.0457719
0.0431456
-0.0414228
0.0396204
0.00180243
-0.0169612
0.0262584
-0.31725
0.307953
-0.0328676
0.0349971
-0.457344
0.455215
-0.0345684
0.0328718
-0.546292
0.547989
-0.0306432
0.0285194
-0.639493
0.641616
-0.0260996
0.0237556
-0.753717
0.756061
-0.0209939
0.0182977
-0.89335
0.896047
-0.015163
0.0121696
-1.06281
1.06581
-0.00874651
0.0054713
-1.26832
1.2716
-0.00167647
-0.00203123
-1.51808
1.52178
0.00569584
-0.00936009
-1.51904
1.5227
0.0124589
-0.0156505
-1.27066
1.27385
0.0184142
-0.0212923
-1.06607
1.06894
0.0237657
-0.0263073
-0.897344
0.899885
0.0284687
-0.0306992
-0.758793
0.761023
0.0326535
-0.0347006
-0.645882
0.647929
0.0362263
-0.0364492
-0.550992
0.551214
0.0340855
-0.0271565
-0.43557
0.428641
0.017541
-0.00741836
-0.239979
0.229856
0.0018856
-0.0409509
0.0390653
-0.0380671
0.0367143
0.00135274
-0.0129519
0.0209573
-0.299299
0.291293
-0.0277365
0.0306726
-0.452638
0.449702
-0.0308964
0.029789
-0.549401
0.550508
-0.0278078
0.0259023
-0.643642
0.645548
-0.0237234
0.0216236
-0.758287
0.760387
-0.0191708
0.0167521
-0.898581
0.900999
-0.0138836
0.0110759
-1.06867
1.07148
-0.00780262
0.00464131
-1.27479
1.27795
-0.000968808
-0.00261068
-1.52541
1.52899
0.00613661
-0.00964661
-1.5263
1.52981
0.0125875
-0.0155668
-1.27697
1.27995
0.018081
-0.0206224
-1.07167
1.07422
0.0227595
-0.0249331
-0.902208
0.904382
0.026801
-0.0287423
-0.763074
0.765015
0.0304374
-0.0322023
-0.649821
0.651586
0.0330632
-0.0325552
-0.551078
0.55057
0.0292877
-0.0220742
-0.421512
0.414298
0.0136632
-0.00569701
-0.220913
0.212947
0.001454
-0.0374241
0.0359701
-0.0355314
0.0344905
0.00104084
-0.0101122
0.0168842
-0.283924
0.277152
-0.0234066
0.0267996
-0.446506
0.443113
-0.0275926
0.0269097
-0.551372
0.552055
-0.0251547
0.0233878
-0.647398
0.649165
-0.0213623
0.0194118
-0.762433
0.764383
-0.0171306
0.0148905
-0.903296
0.905536
-0.0122506
0.00965737
-1.07412
1.07672
-0.00660193
0.00361012
-1.281
1.28399
-0.000102861
-0.00331601
-1.53248
1.53589
0.00666922
-0.00997156
-1.53323
1.53653
0.0126896
-0.0153838
-1.28282
1.28552
0.0176142
-0.0198425
-1.07661
1.07884
0.0217226
-0.0236431
-0.906412
0.908333
0.0252966
-0.0270261
-0.766813
0.768543
0.0285369
-0.0300049
-0.65322
0.654688
0.0303837
-0.0291917
-0.549737
0.548545
0.0253467
-0.0182575
-0.407125
0.400036
0.0109795
-0.00454285
-0.205818
0.199382
0.00116357
-0.0346804
0.0335169
-0.0335753
0.0327654
0.000809849
-0.00799691
0.013681
-0.270947
0.265263
-0.0197181
0.0233207
-0.439594
0.435992
-0.0246139
0.0241999
-0.552622
0.553036
-0.0227419
0.0211063
-0.650903
0.652539
-0.0191981
0.0173509
-0.766301
0.768148
-0.0151793
0.0130397
-0.907679
0.909819
-0.0105154
0.00804633
-1.07918
1.08165
-0.00515656
0.00233805
-1.28685
1.28967
0.000955889
-0.00416417
-1.53919
1.5424
0.00729046
-0.0103375
-1.53972
1.54276
0.0128216
-0.0152659
-1.28811
1.29055
0.0172834
-0.0192948
-1.08098
1.08299
0.0209811
-0.0226991
-0.910142
0.91186
0.0241785
-0.0257218
-0.770142
0.771686
0.0270375
-0.0281251
-0.655962
0.657049
0.0281381
-0.0263092
-0.547049
0.54522
0.0221125
-0.0153575
-0.393111
0.386356
0.00905079
-0.00372697
-0.193555
0.188231
0.000958308
-0.0324713
0.031513
-0.0320541
0.0314243
0.000629796
-0.00635081
0.0110935
-0.260073
0.25533
-0.0165219
0.0201183
-0.432379
0.428783
-0.0217421
0.0215718
-0.553342
0.553512
-0.0203782
0.0188392
-0.654153
0.655692
-0.0170243
0.0152568
-0.769976
0.771743
-0.0131731
0.0111187
-0.911865
0.913919
-0.00869931
0.00634126
-1.08399
1.08635
-0.00358926
0.000916461
-1.29237
1.29504
0.00219476
-0.00520694
-1.54548
1.54849
0.00811569
-0.0109192
-1.54569
1.5485
0.0131782
-0.0153767
-1.29292
1.29512
0.0171753
-0.0189585
-1.08493
1.08672
0.020449
-0.0219671
-0.913469
0.914987
0.0232751
-0.0246361
-0.773087
0.774447
0.0257992
-0.0265056
-0.657928
0.658634
0.0261694
-0.0238372
-0.543162
0.54083
0.0194707
-0.0131419
-0.379827
0.373498
0.00763476
-0.00313648
-0.183363
0.178864
0.000810728
-0.030643
0.0298323
-0.0308756
0.0303925
0.000483095
-0.00501174
0.0089329
-0.251021
0.247099
-0.0137013
0.0171378
-0.425269
0.421833
-0.0189404
0.0189578
-0.553621
0.553603
-0.0179587
0.0164591
-0.657267
0.658767
-0.0146854
0.0129649
-0.773501
0.775221
-0.0109504
0.00897736
-0.915854
0.917827
-0.00666052
0.00440427
-1.08857
1.09082
-0.00177533
-0.000760723
-1.29759
1.30012
0.00368572
-0.00647938
-1.55137
1.55416
0.00914835
-0.0116991
-1.55118
1.55373
0.0137335
-0.0156941
-1.29723
1.29919
0.0172809
-0.0188329
-1.08841
1.08996
0.0201177
-0.0214151
-0.916389
0.917686
0.0225379
-0.0237331
-0.775694
0.776889
0.0247422
-0.0251096
-0.659141
0.659509
0.0244314
-0.021716
-0.538343
0.535628
0.0173084
-0.0114287
-0.367423
0.361543
0.00657408
-0.00270058
-0.174718
0.170844
0.000702698
-0.0290904
0.0283877
-0.0299786
0.0296209
0.000357689
-0.00386949
0.0070534
-0.243567
0.240383
-0.011135
0.0142976
-0.418541
0.415379
-0.0161724
0.0163792
-0.553531
0.553324
-0.0155202
0.0141475
-0.660278
0.661651
-0.0124275
0.0107346
-0.776942
0.778635
-0.00873795
0.00678103
-0.919695
0.921652
-0.00449749
0.00229612
-1.09295
1.09515
0.000235995
-0.00266135
-1.30254
1.30496
0.00542592
-0.00803568
-1.55682
1.55943
0.0104927
-0.0127951
-1.55616
1.55846
0.0145934
-0.0162964
-1.30107
1.30278
0.0176601
-0.0189926
-1.09143
1.09276
0.0200975
-0.0212163
-0.918907
0.920026
0.0221861
-0.0232004
-0.777973
0.778987
0.0239431
-0.0240154
-0.659725
0.659797
0.0229678
-0.0199282
-0.532782
0.529742
0.0155495
-0.0101014
-0.355907
0.350459
0.00577802
-0.00238236
-0.167243
0.163847
0.000627049
-0.027737
0.02711
-0.0293265
0.0290827
0.000243813
-0.00284511
0.00534525
-0.237562
0.235062
-0.00871751
0.0114967
-0.412426
0.409647
-0.0133016
0.0136109
-0.553109
0.5528
-0.012842
0.0115698
-0.663042
0.664314
-0.00988068
0.0081867
-0.780326
0.78202
-0.00618381
0.00423538
-0.923499
0.925447
-0.00198781
-0.000152563
-1.09722
1.09936
0.00260366
-0.00492078
-1.30726
1.30958
0.0075339
-0.00996579
-1.56192
1.56435
0.0122082
-0.0142522
-1.56064
1.56269
0.0158121
-0.0172572
-1.30441
1.30586
0.0183968
-0.0194933
-1.09403
1.09513
0.0203895
-0.0212936
-0.921048
0.921952
0.0220624
-0.0228216
-0.779847
0.780606
0.0232849
-0.0230924
-0.659704
0.659511
0.0216936
-0.0184136
-0.52662
0.52334
0.0141215
-0.00907128
-0.34525
0.3402
0.005179
-0.00214998
-0.160672
0.157643
0.000574148
-0.026527
0.0259529
-0.0289003
0.0287651
0.000135162
-0.00187662
0.00372051
-0.232909
0.231065
-0.00637046
0.00869098
-0.407132
0.404811
-0.0103034
0.0106074
-0.552569
0.552265
-0.00985561
0.00860828
-0.665666
0.666914
-0.006911
0.00521038
-0.783698
0.785398
-0.00321959
0.00129815
-0.927239
0.92916
0.000909383
-0.00301083
-1.10136
1.10346
0.00539599
-0.00762808
-1.31177
1.314
0.0100968
-0.0123309
-1.56663
1.56887
0.0143329
-0.0161056
-1.5646
1.56637
0.0173965
-0.0185367
-1.3072
1.30834
0.019384
-0.0201516
-1.0961
1.09687
0.0207628
-0.0213805
-0.92275
0.923367
0.0219463
-0.0225692
-0.78129
0.781913
0.0227542
-0.0222923
-0.659098
0.658636
0.0205957
-0.0171471
-0.520023
0.516574
0.0129671
-0.00826993
-0.33538
0.330682
0.00472861
-0.00198296
-0.154797
0.152051
0.000538743
-0.0254167
0.024878
-0.0286923
0.0286708
2.15525e-05
-0.000915093
0.00210697
-0.229569
0.228377
-0.00400413
0.00580173
-0.402797
0.401
-0.007151
0.00742719
-0.552084
0.551807
-0.00672766
0.00554092
-0.668251
0.669438
-0.00385459
0.00212804
-0.787058
0.788784
-8.17514e-05
-0.00189619
-0.930935
0.932913
0.00415522
-0.00628028
-1.10544
1.10756
0.00865557
-0.0108324
-1.31611
1.31828
0.0131817
-0.0152406
-1.57095
1.57301
0.0170187
-0.0185216
-1.568
1.5695
0.0195662
-0.0204338
-1.30941
1.31027
0.0210435
-0.0215614
-1.09759
1.0981
0.0219322
-0.0222752
-0.923905
0.924248
0.0225594
-0.0228609
-0.782312
0.782614
0.0227145
-0.0219205
-0.657873
0.657079
0.019872
-0.016204
-0.51309
0.509422
0.012105
-0.00769794
-0.326196
0.321788
0.00442839
-0.00188559
-0.149456
0.146913
0.000524537
-0.0243704
0.0238459
-0.0287048
0.0288035
-9.87229e-05
0.000114752
0.000415729
-0.227536
0.227005
-0.00152014
0.0027028
-0.399558
0.398375
-0.00365405
0.00380485
-0.551718
0.551567
-0.00310728
0.00194359
-0.670735
0.671899
-0.00023179
-0.00156403
-0.790475
0.792271
0.0037029
-0.00575312
-0.934753
0.936803
0.00806743
-0.0102152
-1.10955
1.1117
0.0125744
-0.0146996
-1.32033
1.32246
0.0169434
-0.0188478
-1.57493
1.57683
0.0204017
-0.0216012
-1.57084
1.57204
0.0223133
-0.0228024
-1.31103
1.31152
0.0230694
-0.0232378
-1.09851
1.09868
0.0233205
-0.0233745
-0.924498
0.924552
0.0234199
-0.0233716
-0.782636
0.782587
0.0229357
-0.0216642
-0.655912
0.654641
0.0192709
-0.0154583
-0.505794
0.501982
0.0114612
-0.00729767
-0.317596
0.313433
0.00423473
-0.00183309
-0.144501
0.142099
0.000521467
-0.023352
0.0228305
-0.028971
0.0292062
-0.000235257
0.00112384
-0.0012987
-0.226865
0.227039
0.00104357
-0.000550552
-0.397588
0.397095
0.000122382
-0.000254854
-0.551743
0.551876
0.00111894
-0.0024004
-0.673278
0.674559
0.00420846
-0.00608085
-0.794004
0.795877
0.00828252
-0.0103795
-0.938672
0.940769
0.0127414
-0.0149244
-1.1137
1.11588
0.0173057
-0.0194088
-1.32445
1.32655
0.0215563
-0.0232828
-1.57857
1.58029
0.0245736
-0.0254551
-1.57305
1.57393
0.0258614
-0.0259714
-1.31189
1.312
0.0258819
-0.0256391
-1.0987
1.09846
0.0253455
-0.0250154
-0.924437
0.924107
0.0247229
-0.0243288
-0.782214
0.78182
0.023537
-0.021797
-0.653089
0.651349
0.0190929
-0.0151063
-0.498267
0.49428
0.0111361
-0.00711468
-0.309459
0.305437
0.00417051
-0.0018346
-0.139802
0.137466
0.000532256
-0.0223367
0.0218044
-0.0295102
0.0298894
-0.000379249
0.00226295
-0.00314922
-0.227548
0.228434
0.00377409
-0.00403335
-0.39701
0.397269
0.00418842
-0.00460819
-0.552424
0.552844
0.00559245
-0.00699179
-0.676075
0.677474
0.0089388
-0.0109535
-0.797675
0.79969
0.0133219
-0.0155707
-0.942698
0.944947
0.0180937
-0.0204097
-1.11794
1.12026
0.0229014
-0.0250574
-1.32854
1.3307
0.0271746
-0.0287624
-1.58187
1.58345
0.0298245
-0.0303649
-1.57461
1.57515
0.0304365
-0.0301451
-1.31197
1.31168
0.0296644
-0.0290113
-1.09802
1.09736
0.0283471
-0.0276025
-0.923539
0.922794
0.0269417
-0.0261092
-0.781012
0.780179
0.0248989
-0.0226218
-0.649435
0.647158
0.0194976
-0.0152413
-0.490374
0.486118
0.011212
-0.00721467
-0.301578
0.297581
0.00427426
-0.00190224
-0.135201
0.132829
0.000557425
-0.0212977
0.0207403
-0.0303549
0.0309139
-0.000559086
0.0034874
-0.00512193
-0.229714
0.231349
0.00665853
-0.00772723
-0.397916
0.398985
0.0086156
-0.009443
-0.553794
0.554621
0.0106355
-0.0121858
-0.679132
0.680682
0.0143317
-0.0165787
-0.801644
0.803891
0.0192466
-0.0217808
-0.947077
0.949611
0.0246
-0.0271407
-1.12248
1.12502
0.0298026
-0.0320227
-1.33274
1.33496
0.0340971
-0.0355243
-1.58486
1.58629
0.0363078
-0.0364609
-1.57545
1.5756
0.0361433
-0.0354265
-1.31118
1.31047
0.0345497
-0.0334577
-1.09647
1.09537
0.0324047
-0.0312298
-0.921744
0.920569
0.0301822
-0.0288064
-0.778875
0.777499
0.0270221
-0.0241441
-0.644734
0.641856
0.0205984
-0.0160528
-0.481982
0.477437
0.0118691
-0.00772401
-0.293703
0.289558
0.00462129
-0.00206831
-0.130477
0.127924
0.000605507
-0.0202026
0.019597
-0.0315591
0.0323281
-0.000769034
0.00485557
-0.00728963
-0.23339
0.235824
0.00980436
-0.0117523
-0.400495
0.402443
0.0134909
-0.0149123
-0.556126
0.557548
0.0165485
-0.0184297
-0.682599
0.68448
0.0209474
-0.0235515
-0.806104
0.808709
0.0266143
-0.0294885
-0.952031
0.954905
0.032637
-0.0354196
-1.12746
1.13024
0.0382642
-0.0405592
-1.33706
1.33935
0.0425962
-0.0438445
-1.58752
1.58877
0.0443129
-0.0440218
-1.57548
1.57519
0.0432388
-0.0420137
-1.30948
1.30825
0.0406767
-0.0390846
-1.09397
1.09238
0.03759
-0.0359613
-0.919022
0.917393
0.0344964
-0.0325206
-0.775619
0.773643
0.0302315
-0.026804
-0.638928
0.6355
0.0228128
-0.0178445
-0.473016
0.468048
0.0133027
-0.00875208
-0.285445
0.280894
0.00527431
-0.00236557
-0.12532
0.122412
0.000689996
-0.0190001
0.0183101
-0.0331745
0.0342024
-0.00102789
0.00648551
-0.00982534
-0.238652
0.241992
0.0134139
-0.0163139
-0.404938
0.407838
0.0189845
-0.0211457
-0.559834
0.561995
0.0234641
-0.0259057
-0.6869
0.689342
0.0290044
-0.0320984
-0.811307
0.814401
0.0356431
-0.0389136
-0.957652
0.960922
0.0424482
-0.0455325
-1.13291
1.13599
0.0486239
-0.0510341
-1.34151
1.34392
0.0530264
-0.0540502
-1.58978
1.5908
0.05414
-0.0533469
-1.57458
1.57378
0.0520397
-0.0501969
-1.30665
1.30481
0.048302
-0.0461306
-1.09039
1.08822
0.0441568
-0.0420531
-0.915312
0.913209
0.040141
-0.0376516
-0.771212
0.768723
0.0348388
-0.0307906
-0.632063
0.628015
0.0262004
-0.0205741
-0.463167
0.457541
0.0154293
-0.0102124
-0.276288
0.271072
0.0061686
-0.00276118
-0.1194
0.115993
0.000800323
-0.0176219
0.0168216
-0.0352982
0.0366844
-0.00138624
0.00866197
-0.0131373
-0.245713
0.250188
0.0179875
-0.021942
-0.411401
0.415355
0.0255978
-0.0285242
-0.565203
0.568129
0.0315709
-0.0346572
-0.692441
0.695528
0.0384676
-0.0421788
-0.817497
0.821209
0.0463682
-0.0501908
-0.964099
0.967921
0.0542773
-0.0577885
-1.13899
1.1425
0.0612332
-0.0638178
-1.3462
1.34878
0.0657915
-0.0665815
-1.59156
1.59235
0.0662592
-0.0648896
-1.57262
1.57125
0.0629955
-0.0604755
-1.30256
1.30004
0.057962
-0.0551573
-1.08553
1.08272
0.0526329
-0.0499711
-0.910545
0.907883
0.0475441
-0.0444811
-0.76577
0.762707
0.0410176
-0.0361311
-0.623912
0.619026
0.0307164
-0.024172
-0.451964
0.44542
0.018174
-0.0120379
-0.265735
0.259598
0.00725769
-0.00323596
-0.112446
0.108424
0.000933481
-0.0160185
0.0150851
-0.0381166
0.0400327
-0.00191605
0.0117643
-0.0177466
-0.255011
0.260993
0.0241596
-0.0293684
-0.420232
0.425441
0.0341413
-0.0379309
-0.572381
0.57617
0.041818
-0.045665
-0.699376
0.703223
0.0503315
-0.0548422
-0.824937
0.829447
0.0598821
-0.0644215
-0.971712
0.976251
0.0691863
-0.0731731
-1.14595
1.14993
0.0769383
-0.0796097
-1.35119
1.35386
0.0814373
-0.0818471
-1.59281
1.59322
0.0809634
-0.0788833
-1.56944
1.56736
0.0763138
-0.0730381
-1.29705
1.29378
0.0698332
-0.0662677
-1.0793
1.07574
0.0630891
-0.0597601
-0.904483
0.901154
0.0566602
-0.0528191
-0.759031
0.755189
0.0485105
-0.0425892
-0.61402
0.608098
0.0361731
-0.0284659
-0.438931
0.431224
0.0213601
-0.0140749
-0.253317
0.246032
0.00843251
-0.00373112
-0.104268
0.0995667
0.00106731
-0.0141578
0.0130905
-0.0419541
0.0447074
-0.0027533
0.0164442
-0.0245034
-0.267267
0.275326
0.0329396
-0.0397451
-0.432129
0.438934
0.0459557
-0.0508731
-0.581777
0.586695
0.0559496
-0.0609318
-0.70797
0.712952
0.066723
-0.072168
-0.833999
0.839444
0.07813
-0.0833754
-0.980746
0.985991
0.0887109
-0.0929894
-1.15376
1.15804
0.0967916
-0.0992365
-1.35618
1.35863
0.100522
-0.10017
-1.59309
1.59273
0.0983395
-0.0951923
-1.56467
1.56152
0.0916847
-0.0874716
-1.28996
1.28574
0.0834988
-0.0791656
-1.07151
1.06718
0.0753137
-0.0712008
-0.896876
0.892763
0.0672835
-0.0625645
-0.750604
0.745885
0.0573454
-0.0503211
-0.602012
0.594988
0.0427009
-0.033475
-0.423564
0.414338
0.0249481
-0.0162857
-0.238619
0.229956
0.00966741
-0.00423145
-0.094761
0.089325
0.00119531
-0.0120445
0.0108492
-0.0473935
0.0515865
-0.004193
0.0238778
-0.0348318
-0.283684
0.294638
0.0459414
-0.05488
-0.448215
0.457154
0.0629493
-0.0693712
-0.594116
0.600537
0.0761313
-0.0825943
-0.71891
0.725373
0.0897384
-0.0961397
-0.844899
0.851301
0.102878
-0.108564
-0.991055
0.996741
0.114067
-0.118212
-1.16193
1.16607
0.121559
-0.123308
-1.36047
1.36222
0.123527
-0.121932
-1.59156
1.58996
0.118725
-0.114109
-1.5575
1.55288
0.109334
-0.103845
-1.28078
1.2753
0.0988416
-0.0935513
-1.06209
1.0568
0.0889877
-0.0842129
-0.887609
0.882834
0.0797009
-0.0741904
-0.740298
0.734787
0.0680389
-0.0595847
-0.587633
0.579179
0.0503078
-0.0390977
-0.405067
0.393857
0.028868
-0.0186444
-0.221275
0.211051
0.0109417
-0.00471869
-0.0838618
0.0776388
0.00130825
-0.00969922
0.00839097
-0.0555107
0.0627488
-0.00723814
0.0371487
-0.0523879
-0.306436
0.321675
0.0672092
-0.0788883
-0.469934
0.481613
0.088878
-0.0968872
-0.610097
0.618106
0.105457
-0.113311
-0.732616
0.740471
0.121523
-0.128469
-0.857518
0.864464
0.13538
-0.140882
-1.00196
1.00746
0.145869
-0.149279
-1.1695
1.17291
0.151573
-0.152118
-1.36306
1.3636
0.150821
-0.14765
-1.5873
1.58413
0.142876
-0.136693
-1.54725
1.54107
0.130584
-0.123745
-1.26893
1.26209
0.1176
-0.111213
-1.0506
1.04421
0.105812
-0.100311
-0.876889
0.871388
0.0952019
-0.0887075
-0.728186
0.721691
0.0809373
-0.0701677
-0.569952
0.559182
0.0586103
-0.0451318
-0.382455
0.368976
0.0331018
-0.0212125
-0.201041
0.189151
0.0123016
-0.00520807
-0.0715842
0.0644907
0.00140224
-0.00716913
0.00576689
-0.0695587
0.0734617
-0.00390304
0.0277608
-0.0408431
-0.339444
0.352526
0.0539379
-0.0643647
-0.498379
0.508806
0.0738983
-0.0832314
-0.629564
0.638897
0.0938497
-0.103249
-0.748162
0.757562
0.113665
-0.122869
-0.870594
0.879798
0.132491
-0.140855
-1.01199
1.02036
0.14934
-0.156344
-1.17521
1.18221
0.162885
-0.167579
-1.36297
1.36767
0.170888
-0.171801
-1.57977
1.58068
0.170201
-0.166505
-1.53383
1.53014
0.161701
-0.155376
-1.25438
1.24805
0.1492
-0.141794
-1.03685
1.02944
0.135252
-0.127986
-0.864388
0.857122
0.120632
-0.110686
-0.713211
0.703265
0.0983103
-0.082357
-0.547118
0.531165
0.0666147
-0.049143
-0.355129
0.337657
0.0344678
-0.0208218
-0.177655
0.164009
0.0113009
-0.00442142
-0.0581026
0.0512231
0.00106089
-0.00456218
0.00350129
-0.0804501
0.0783736
0.00207647
0.0058365
-0.01402
-0.368408
0.376592
0.0237094
-0.0311203
-0.523825
0.531235
0.0388544
-0.0468167
-0.650395
0.658357
0.0563931
-0.0651699
-0.766731
0.775508
0.0744492
-0.0828863
-0.888447
0.896884
0.0917485
-0.0992085
-1.02845
1.03591
0.107055
-0.113265
-1.18912
1.19533
0.119142
-0.12323
-1.37223
1.37632
0.125782
-0.126234
-1.58106
1.58152
0.124291
-0.120329
-1.52604
1.52208
0.115069
-0.108151
-1.2415
1.23458
0.101147
-0.0926039
-1.02127
1.01273
0.0839348
-0.0733955
-0.846386
0.835847
0.0630819
-0.0516816
-0.687576
0.676175
0.0411671
-0.0297526
-0.512617
0.501203
0.0202915
-0.0120675
-0.319774
0.31155
0.00672197
-0.0029111
-0.150937
0.147127
0.000967646
-9.96249e-05
-0.0448739
0.0440058
-6.82228e-05
-0.00236628
0.00243451
-0.081383
0.078403
0.00298005
-0.00305704
-0.00122953
-0.387509
0.391796
0.00746592
-0.0128514
-0.542432
0.547817
0.0186909
-0.0253276
-0.667931
0.674568
0.033356
-0.0407956
-0.783441
0.79088
0.0489771
-0.0563411
-0.904594
0.911958
0.0639322
-0.0707623
-1.04325
1.05008
0.07782
-0.0835852
-1.20125
1.20701
0.0887028
-0.0921627
-1.37995
1.38341
0.0944208
-0.0944508
-1.58149
1.58152
0.0920991
-0.0877112
-1.51762
1.51323
0.0820795
-0.074819
-1.22742
1.22016
0.0669748
-0.0575997
-1.00319
0.99381
0.0481294
-0.0369949
-0.823858
0.812724
0.0268954
-0.0165563
-0.661528
0.651189
0.00830488
-0.000598232
-0.487885
0.480178
-0.00406453
0.00638124
-0.301776
0.29946
-0.00658306
0.00543725
-0.141684
0.142829
-0.00378979
0.00191129
-0.0425014
0.0443799
-0.000615835
-0.00220494
0.00282078
-0.0798508
0.0770239
0.00282684
-0.00628765
0.00451094
-0.399695
0.401471
-0.000924755
-0.00296874
-0.556093
0.559987
0.00784339
-0.0132174
-0.681929
0.687303
0.0198672
-0.0261371
-0.797775
0.804045
0.0331001
-0.0394641
-0.918839
0.925203
0.0464834
-0.0524545
-1.05657
1.06254
0.0588653
-0.0637017
-1.21249
1.21732
0.0683439
-0.0714265
-1.38677
1.38985
0.0731388
-0.0724833
-1.58115
1.5805
0.0698269
-0.0651225
-1.50817
1.50347
0.0592142
-0.0513863
-1.21241
1.20459
0.0434684
-0.034178
-0.983789
0.974499
0.0249379
-0.014824
-0.800957
0.790843
0.00571123
0.00277756
-0.638676
0.630188
-0.00878843
0.0133238
-0.470896
0.466361
-0.0150065
0.0142159
-0.293913
0.294704
-0.0120363
0.00875654
-0.142104
0.145384
-0.00575009
0.00272381
-0.0453102
0.0483365
-0.00082662
-0.00304677
0.00387339
-0.0781691
0.0757453
0.00242382
-0.00698137
0.00662026
-0.407606
0.407967
-0.00407564
0.00139689
-0.566817
0.569495
0.00243084
-0.00717729
-0.693257
0.698003
0.0125964
-0.0180274
-0.809686
0.815117
0.0240418
-0.0296196
-0.931179
0.936757
0.0357574
-0.0412089
-1.06844
1.07389
0.046822
-0.0514103
-1.2221
1.22669
0.055543
-0.058197
-1.39261
1.39527
0.0594759
-0.0584663
-1.57961
1.57861
0.0555419
-0.0504807
-1.49796
1.4929
0.044568
-0.0370672
-1.19661
1.18911
0.0295469
-0.0208251
-0.964884
0.956162
0.0126617
-0.00386504
-0.780384
0.771587
-0.00361881
0.0104825
-0.620242
0.613379
-0.0149909
0.0179059
-0.459526
0.456611
-0.018596
0.0167501
-0.291541
0.293386
-0.0136072
0.00979075
-0.146572
0.150389
-0.00634673
0.00295494
-0.0502897
0.0536815
-0.000902553
-0.00433739
0.00523994
-0.0767434
0.0747248
0.00201862
-0.00648959
0.00644486
-0.412954
0.412999
-0.00512984
0.00294918
-0.574863
0.577044
0.000758731
-0.00475087
-0.702601
0.706593
0.00934866
-0.0140299
-0.819828
0.824509
0.0193829
-0.0244114
-0.942045
0.947074
0.0301006
-0.0349683
-1.07912
1.08398
0.0401138
-0.0443189
-1.23103
1.23523
0.0480219
-0.0503304
-1.39766
1.39997
0.0512735
-0.0504116
-1.57744
1.57658
0.0473839
-0.0425886
-1.48736
1.48256
0.036968
-0.0300024
-1.1815
1.17454
0.0234087
-0.0155917
-0.947523
0.939706
0.0085153
-0.00120408
-0.762809
0.755498
-0.00495077
0.0105219
-0.605434
0.599863
-0.0141969
0.0166697
-0.451197
0.448724
-0.0169574
0.0152142
-0.291506
0.293249
-0.0124633
0.00890851
-0.152046
0.1556
-0.00570789
0.00268046
-0.0556287
0.0586562
-0.000827487
-0.00570009
0.00652758
-0.0757684
0.0742389
0.00152958
-0.00532955
0.00544448
-0.416999
0.416884
-0.00433047
0.00269979
-0.581953
0.583583
0.000829541
-0.00444442
-0.710621
0.714235
0.00884194
-0.0128747
-0.828872
0.832905
0.0176031
-0.0221015
-0.952122
0.956621
0.0275367
-0.0320045
-1.08891
1.09338
0.0366317
-0.0406214
-1.23927
1.24326
0.0444255
-0.0465278
-1.40227
1.40438
0.0474666
-0.0465353
-1.5753
1.57436
0.0439562
-0.0392612
-1.47757
1.47288
0.0342687
-0.0281361
-1.16755
1.16141
0.022187
-0.0155513
-0.932155
0.92552
0.00942953
-0.00302944
-0.748044
0.741644
-0.00198671
0.00680334
-0.593256
0.588439
-0.010059
0.0119737
-0.444023
0.442108
-0.0124422
0.0114471
-0.291797
0.292792
-0.00936845
0.0066264
-0.156728
0.15947
-0.00422532
0.00200284
-0.0600482
0.0622707
-0.000635551
-0.00683673
0.00747228
-0.0753653
0.0741961
0.00116921
-0.00407556
0.00416688
-0.420355
0.420263
-0.00296094
0.00128095
-0.588255
0.589935
0.00206254
-0.00531235
-0.717893
0.721143
0.00910495
-0.0130484
-0.836963
0.840907
0.0174548
-0.02211
-0.960976
0.965632
0.0268322
-0.0311049
-1.09795
1.10223
0.0358253
-0.0395319
-1.24713
1.25083
0.0428117
-0.0452712
-1.40637
1.40883
0.0463467
-0.0456963
-1.57346
1.57281
0.0433471
-0.0393671
-1.4684
1.46442
0.0348994
-0.0294071
-1.15508
1.14959
0.0242034
-0.0183494
-0.918921
0.913067
0.0130163
-0.00759221
-0.735334
0.72991
0.00290978
0.00138761
-0.582729
0.578432
-0.00427722
0.00634536
-0.437936
0.435868
-0.00701996
0.00646547
-0.291186
0.29174
-0.0053086
0.00367705
-0.159661
0.161292
-0.0023187
0.00111093
-0.0628663
0.064074
-0.000379814
-0.00759746
0.00797727
-0.075526
0.0745653
0.000960701
-0.00271283
0.00248478
-0.423572
0.4238
-0.0013584
-0.000443476
-0.594203
0.596004
0.00362168
-0.00686485
-0.72477
0.728013
0.0105908
-0.0142094
-0.84472
0.848339
0.0187786
-0.0226774
-0.969763
0.973662
0.0273623
-0.0314346
-1.10666
1.11073
0.0360026
-0.0398572
-1.25452
1.25837
0.0433667
-0.0455721
-1.41104
1.41324
0.0469584
-0.0467105
-1.57208
1.57183
0.0450339
-0.0414588
-1.46035
1.45678
0.037552
-0.0326372
-1.14426
1.13935
0.0280135
-0.0227209
-0.907094
0.901802
0.0180565
-0.0131108
-0.724282
0.719336
0.00891864
-0.00492408
-0.573467
0.569473
0.00197552
9.41838e-05
-0.431919
0.42985
-0.00117307
0.0013713
-0.289462
0.289263
-0.00130877
0.00095312
-0.160466
0.160822
-0.000643849
0.000394754
-0.0637856
0.0640347
-0.000172384
-0.00788803
0.00806041
-0.0759826
0.0753275
0.000655133
-0.00154735
0.000910743
-0.427064
0.427701
7.1881e-05
-0.0022804
-0.59953
0.601739
0.00521327
-0.00842616
-0.731351
0.734564
0.0120828
-0.0159004
-0.851902
0.85572
0.0199163
-0.0239909
-0.977803
0.981878
0.0286348
-0.0324834
-1.11523
1.11908
0.037106
-0.040879
-1.26203
1.2658
0.0444077
-0.0471066
-1.41584
1.41854
0.0489598
-0.0490006
-1.57162
1.57166
0.0476032
-0.0447838
-1.45338
1.45056
0.041472
-0.037003
-1.13433
1.12986
0.0327212
-0.0280711
-0.896473
0.891823
0.0234571
-0.0190314
-0.714125
0.7097
0.0151244
-0.0112241
-0.565056
0.561156
0.00837057
-0.00590364
-0.425845
0.423378
0.00435516
-0.00317508
-0.28648
0.2853
0.00229935
-0.00141222
-0.159069
0.158182
0.000655589
-0.000109705
-0.0629352
0.0623893
-6.04755e-05
-0.00769438
0.00775485
-0.0768409
0.0763391
0.00050184
-0.00059683
7.12545e-05
-0.430884
0.431409
0.00175004
-0.00379029
-0.605256
0.607296
0.00694208
-0.010111
-0.737631
0.7408
0.0137027
-0.0171942
-0.859289
0.86278
0.0213798
-0.0251656
-0.985994
0.98978
0.02976
-0.0340233
-1.12339
1.12765
0.0382663
-0.0423375
-1.26961
1.27368
0.0462536
-0.0490268
-1.42114
1.42391
0.0512423
-0.0520643
-1.57192
1.57274
0.0511274
-0.0489523
-1.44761
1.44544
0.0458748
-0.0418863
-1.12542
1.12143
0.0380303
-0.0335749
-0.886774
0.882319
0.0293572
-0.0250718
-0.704748
0.700462
0.0212909
-0.0173349
-0.556727
0.552771
0.0142092
-0.0113912
-0.419386
0.416568
0.00909038
-0.00704395
-0.281845
0.279798
0.00522769
-0.00333755
-0.155529
0.153639
0.00182988
-0.000650422
-0.0606148
0.0594354
0.000107047
-0.00721776
0.00711071
-0.0779548
0.0776337
0.000321126
0.000460995
-0.00129633
-0.434809
0.435644
0.00291606
-0.00529216
-0.610658
0.613034
0.00843511
-0.0115165
-0.743839
0.74692
0.0152596
-0.0186597
-0.866315
0.869715
0.0227346
-0.0266603
-0.994071
0.997997
0.0311626
-0.0353829
-1.13178
1.136
0.0398266
-0.0439049
-1.27768
1.28176
0.0479867
-0.0514871
-1.42697
1.43047
0.0541394
-0.055261
-1.5735
1.57462
0.0550184
-0.0531735
-1.44314
1.4413
0.0506493
-0.0471775
-1.11736
1.11388
0.0433801
-0.0391357
-0.877565
0.87332
0.0350824
-0.0307498
-0.695756
0.691424
0.02706
-0.0229634
-0.548564
0.544467
0.0196354
-0.0162116
-0.412294
0.40887
0.01337
-0.0104663
-0.27563
0.272726
0.00771094
-0.00496091
-0.150117
0.147367
0.00280626
-0.0010832
-0.057138
0.055415
0.00022548
-0.00649611
0.00627063
-0.0792804
0.0790815