/*--------------------------------*- C++ -*----------------------------------*\
  =========                 |
  \\      /  F ield         | OpenFOAM: The Open Source CFD Toolbox
   \\    /   O peration     | Website:  https://openfoam.org
    \\  /    A nd           | Version:  9
     \\/     M anipulation  |
\*---------------------------------------------------------------------------*/
FoamFile
{
    format      ascii;
    class       volVectorField;
    location    "48";
    object      U;
}
// * * * * * * * * * * * * * * * * * * * * * * * * * * * * * * * * * * * * * //

dimensions      [0 1 -1 0 0 0 0];

internalField   nonuniform List<vector> 
8800
(
(0.980144 -0.0915214 0)
(1.00234 -0.0587289 0)
(0.999586 -0.0321299 0)
(0.99998 -0.0165234 0)
(1.00007 -0.00884183 0)
(1.00007 -0.00509605 0)
(1.00004 -0.00299628 0)
(1.00002 -0.0016881 0)
(0.999999 -0.000787439 0)
(1.00006 -9.11437e-05 0)
(0.999988 0.000614371 0)
(0.999995 0.0013663 0)
(1.00001 0.00239164 0)
(1.00002 0.00399929 0)
(1.00003 0.00674925 0)
(0.99999 0.0120513 0)
(0.999787 0.0230959 0)
(0.999028 0.0431584 0)
(1.00723 0.0790269 0)
(0.775024 0.0478395 0)
(0.358981 -0.0147489 0)
(1.0465 -0.0724886 0)
(1.08847 -0.0660274 0)
(1.04943 -0.0509236 0)
(1.02553 -0.0377058 0)
(1.01272 -0.0259011 0)
(1.00655 -0.0167098 0)
(1.00362 -0.0102247 0)
(1.00218 -0.00559557 0)
(1.00151 -0.0020041 0)
(1.00138 0.00120639 0)
(1.00173 0.00451153 0)
(1.0027 0.00839915 0)
(1.00473 0.0137173 0)
(1.00897 0.0214017 0)
(1.01795 0.0318973 0)
(1.03578 0.0446705 0)
(1.0674 0.0581122 0)
(1.0947 0.0699626 0)
(0.84563 0.0555072 0)
(0.217778 -0.00138151 0)
(1.07566 -0.0506609 0)
(1.09939 -0.0489457 0)
(1.06437 -0.0400326 0)
(1.03988 -0.0325762 0)
(1.02378 -0.0253656 0)
(1.014 -0.0181518 0)
(1.0085 -0.0115327 0)
(1.00565 -0.00577752 0)
(1.00448 -0.000489332 0)
(1.00479 0.00461808 0)
(1.00663 0.00990203 0)
(1.01056 0.0158728 0)
(1.01788 0.0226364 0)
(1.03049 0.0297476 0)
(1.05048 0.0368366 0)
(1.08002 0.0446119 0)
(1.10564 0.0519376 0)
(0.943265 0.0410105 0)
(0.217196 0.00140511 0)
(0.176626 -0.000629143 0)
(1.01937 -0.035472 0)
(1.10569 -0.0414243 0)
(1.07795 -0.0364143 0)
(1.05242 -0.0303747 0)
(1.03519 -0.0245019 0)
(1.02334 -0.0187103 0)
(1.01554 -0.0127147 0)
(1.01094 -0.00662222 0)
(1.0089 -0.000387469 0)
(1.00944 0.00576672 0)
(1.01251 0.0116768 0)
(1.01846 0.0174455 0)
(1.02805 0.0230288 0)
(1.04226 0.0285863 0)
(1.06308 0.034371 0)
(1.09384 0.0402561 0)
(1.09441 0.0417811 0)
(0.830198 0.0227771 0)
(0.175633 0.000648044 0)
(0.15471 -0.000463003 0)
(0.958127 -0.0257018 0)
(1.10436 -0.0351367 0)
(1.08805 -0.0326961 0)
(1.06122 -0.0281956 0)
(1.04317 -0.0232389 0)
(1.0308 -0.0179414 0)
(1.02221 -0.0124023 0)
(1.01667 -0.00649798 0)
(1.01402 -5.08411e-05 0)
(1.01467 0.00640354 0)
(1.01845 0.0122721 0)
(1.02522 0.0175933 0)
(1.03536 0.0226068 0)
(1.0501 0.0274343 0)
(1.07204 0.0318812 0)
(1.10099 0.0357618 0)
(1.06968 0.0339709 0)
(0.742548 0.0144518 0)
(0.153223 0.000484228 0)
(0.140017 -0.000334882 0)
(0.901083 -0.0193394 0)
(1.09675 -0.0302493 0)
(1.09617 -0.0293848 0)
(1.06891 -0.0256133 0)
(1.05008 -0.0215364 0)
(1.03713 -0.0168433 0)
(1.02816 -0.0116019 0)
(1.02222 -0.00589042 0)
(1.01925 0.000457441 0)
(1.01987 0.00682732 0)
(1.02387 0.0124721 0)
(1.03089 0.0174555 0)
(1.04139 0.0219347 0)
(1.05676 0.0258849 0)
(1.07956 0.0294066 0)
(1.10331 0.0321272 0)
(1.03791 0.0281256 0)
(0.675762 0.010303 0)
(0.137925 0.000360155 0)
(0.129268 -0.000253547 0)
(0.851163 -0.014946 0)
(1.08437 -0.0261587 0)
(1.10182 -0.0265215 0)
(1.0757 -0.0232134 0)
(1.05637 -0.0195702 0)
(1.043 -0.0153866 0)
(1.03366 -0.0105398 0)
(1.02746 -0.00505745 0)
(1.02426 0.00109567 0)
(1.02478 0.00723938 0)
(1.0288 0.0125998 0)
(1.03597 0.0171659 0)
(1.04676 0.021046 0)
(1.06252 0.0243951 0)
(1.08577 0.0274442 0)
(1.10256 0.0292753 0)
(1.00327 0.0235751 0)
(0.623767 0.00789759 0)
(0.126438 0.000284341 0)
(0.121068 -0.000194865 0)
(0.808607 -0.0117647 0)
(1.069 -0.0225751 0)
(1.1053 -0.0239127 0)
(1.08191 -0.0210667 0)
(1.06212 -0.0176582 0)
(1.04849 -0.013762 0)
(1.0389 -0.00924497 0)
(1.03243 -0.00404857 0)
(1.02901 0.00186346 0)
(1.02938 0.00773718 0)
(1.03336 0.0127408 0)
(1.0406 0.0168518 0)
(1.0515 0.0202657 0)
(1.06751 0.0232188 0)
(1.09114 0.0259521 0)
(1.09893 0.0268741 0)
(0.968261 0.0199857 0)
(0.582081 0.00632502 0)
(0.117341 0.000232218 0)
(0.114704 -0.000150377 0)
(0.772698 -0.00938483 0)
(1.05207 -0.0194211 0)
(1.10759 -0.0215009 0)
(1.08772 -0.0190412 0)
(1.06753 -0.0157985 0)
(1.05364 -0.0120821 0)
(1.04387 -0.00778242 0)
(1.03718 -0.00284066 0)
(1.03352 0.00279449 0)
(1.0337 0.00834497 0)
(1.03757 0.0129613 0)
(1.04474 0.0166636 0)
(1.05567 0.0197057 0)
(1.07192 0.0223296 0)
(1.09527 0.0247247 0)
(1.09254 0.0248627 0)
(0.934238 0.0171942 0)
(0.547706 0.00524167 0)
(0.109884 0.000195781 0)
(0.109726 -0.000115242 0)
(0.742511 -0.00754108 0)
(1.03465 -0.0166238 0)
(1.10891 -0.0192386 0)
(1.09322 -0.0171067 0)
(1.07274 -0.0139797 0)
(1.05857 -0.0103757 0)
(1.04862 -0.00621007 0)
(1.04173 -0.00145332 0)
(1.0378 0.00391373 0)
(1.03772 0.00912676 0)
(1.04139 0.013378 0)
(1.04844 0.0167303 0)
(1.05938 0.0194392 0)
(1.07586 0.0217634 0)
(1.09815 0.0237854 0)
(1.08378 0.0231857 0)
(0.901818 0.0150483 0)
(0.518597 0.00447801 0)
(0.10358 0.000170505 0)
(0.105843 -8.63041e-05 0)
(0.717227 -0.0060565 0)
(1.01755 -0.0141086 0)
(1.10935 -0.0170453 0)
(1.09859 -0.0152164 0)
(1.07784 -0.0121242 0)
(1.06339 -0.0085728 0)
(1.05321 -0.00449661 0)
(1.04609 0.000122215 0)
(1.04188 0.00525909 0)
(1.04147 0.0101536 0)
(1.04487 0.0140481 0)
(1.05175 0.0170388 0)
(1.06268 0.0194152 0)
(1.07936 0.0214829 0)
(1.09969 0.0231142 0)
(1.07302 0.0218188 0)
(0.871162 0.01343 0)
(0.49331 0.00394107 0)
(0.0980828 0.000153587 0)
(0.102862 -6.16135e-05 0)
(0.696197 -0.00481452 0)
(1.00139 -0.0118169 0)
(1.10908 -0.0148984 0)
(1.10379 -0.0132859 0)
(1.08291 -0.0101777 0)
(1.06813 -0.00663018 0)
(1.0577 -0.00258927 0)
(1.0503 0.00193943 0)
(1.04573 0.00687874 0)
(1.04493 0.0114694 0)
(1.048 0.0150277 0)
(1.05467 0.0176854 0)
(1.06557 0.0197337 0)
(1.08243 0.0215285 0)
(1.10027 0.0227428 0)
(1.06061 0.0207741 0)
(0.842158 0.012246 0)
(0.470776 0.00357369 0)
(0.0931383 0.000143373 0)
(0.100661 -3.88598e-05 0)
(0.678948 -0.00372403 0)
(0.986638 -0.00967229 0)
(1.10829 -0.0127082 0)
(1.10876 -0.0112497 0)
(1.08803 -0.00812454 0)
(1.07289 -0.00452181 0)
(1.06216 -0.000445463 0)
(1.0544 0.00403941 0)
(1.04938 0.00883405 0)
(1.0481 0.013156 0)
(1.05078 0.016369 0)
(1.05721 0.0186727 0)
(1.06807 0.0203948 0)
(1.08502 0.0219119 0)
(1.09987 0.0227765 0)
(1.04673 0.0200569 0)
(0.814531 0.011425 0)
(0.450173 0.00333784 0)
(0.0885481 0.000138583 0)
(0.0991747 -1.62674e-05 0)
(0.665189 -0.00271579 0)
(0.973668 -0.00759961 0)
(1.10729 -0.0103978 0)
(1.11362 -0.00899647 0)
(1.09326 -0.00580941 0)
(1.07774 -0.00209975 0)
(1.06662 0.00204811 0)
(1.05843 0.00653115 0)
(1.05286 0.0112113 0)
(1.05099 0.015267 0)
(1.0532 0.0181346 0)
(1.05935 0.0200672 0)
(1.07013 0.0214165 0)
(1.08712 0.0226509 0)
(1.09832 0.0230897 0)
(1.03151 0.0196366 0)
(0.787931 0.0109021 0)
(0.430845 0.00320443 0)
(0.0841564 0.000137726 0)
(0.0983885 7.67565e-06 0)
(0.654779 -0.00173755 0)
(0.962801 -0.00552712 0)
(1.10642 -0.00792101 0)
(1.11853 -0.00649517 0)
(1.09868 -0.00320574 0)
(1.08272 0.000672155 0)
(1.07117 0.00495622 0)
(1.06245 0.00950444 0)
(1.0562 0.0140983 0)
(1.05363 0.0178838 0)
(1.05526 0.0203838 0)
(1.06105 0.0219303 0)
(1.07175 0.0228855 0)
(1.08872 0.0238158 0)
(1.09558 0.0237754 0)
(1.01501 0.0195484 0)
(0.761979 0.0106478 0)
(0.412262 0.00316028 0)
(0.0798365 0.00014076 0)
(0.0983258 2.88341e-05 0)
(0.647698 -0.000738318 0)
(0.954334 -0.00337598 0)
(1.10599 -0.00519172 0)
(1.12358 -0.00365764 0)
(1.10435 -0.000229657 0)
(1.08793 0.00388429 0)
(1.07586 0.00838181 0)
(1.06648 0.0130556 0)
(1.0594 0.0176118 0)
(1.05597 0.0211449 0)
(1.05692 0.023259 0)
(1.06228 0.024376 0)
(1.07286 0.0248956 0)
(1.08957 0.0254382 0)
(1.09141 0.0248528 0)
(0.997137 0.0197967 0)
(0.736246 0.0106431 0)
(0.393948 0.00319729 0)
(0.0754716 0.000147224 0)
(0.0990202 6.74307e-05 0)
(0.644026 0.000292515 0)
(0.948601 -0.00107751 0)
(1.10636 -0.00211922 0)
(1.12899 -0.000340805 0)
(1.11039 0.00332266 0)
(1.09348 0.00774547 0)
(1.08076 0.0125037 0)
(1.07058 0.0173491 0)
(1.0625 0.0218895 0)
(1.05802 0.0251437 0)
(1.05813 0.0268187 0)
(1.06298 0.0274472 0)
(1.07342 0.0274939 0)
(1.08953 0.0276131 0)
(1.08567 0.0263758 0)
(0.977779 0.020418 0)
(0.710268 0.0108799 0)
(0.375456 0.00331039 0)
(0.0709554 0.000156875 0)
(0.100678 9.4202e-05 0)
(0.644165 0.00146258 0)
(0.945957 0.00145344 0)
(1.10798 0.00137484 0)
(1.13499 0.00350657 0)
(1.11693 0.00752559 0)
(1.09941 0.012342 0)
(1.08592 0.0174595 0)
(1.07475 0.0225541 0)
(1.06543 0.0270994 0)
(1.05969 0.0300487 0)
(1.05882 0.0312289 0)
(1.06304 0.0313143 0)
(1.07332 0.0308413 0)
(1.08843 0.0304448 0)
(1.07823 0.0284001 0)
(0.956674 0.0214314 0)
(0.683551 0.0113559 0)
(0.35636 0.00349666 0)
(0.0661863 0.000169564 0)
(0.103365 0.000142055 0)
(0.648479 0.00291022 0)
(0.946877 0.00436647 0)
(1.11131 0.00542823 0)
(1.14172 0.00804346 0)
(1.1241 0.0125318 0)
(1.10591 0.0178634 0)
(1.09149 0.0234558 0)
(1.0791 0.0288683 0)
(1.06828 0.0334456 0)
(1.061 0.0360506 0)
(1.05895 0.0366435 0)
(1.0624 0.0361173 0)
(1.07243 0.0350713 0)
(1.08605 0.0340565 0)
(1.06879 0.0310083 0)
(0.933511 0.0228825 0)
(0.655568 0.0120789 0)
(0.336242 0.00375529 0)
(0.0610723 0.00018478 0)
(0.107358 0.000202838 0)
(0.657523 0.00459275 0)
(0.951852 0.00780349 0)
(1.11684 0.0102115 0)
(1.14944 0.0135462 0)
(1.1321 0.0187005 0)
(1.11309 0.02466 0)
(1.0975 0.0308022 0)
(1.0836 0.0365861 0)
(1.07095 0.0411742 0)
(1.06184 0.0433354 0)
(1.05842 0.0432505 0)
(1.06095 0.04199 0)
(1.07065 0.0402673 0)
(1.08227 0.0385678 0)
(1.05701 0.0343174 0)
(0.907864 0.0248294 0)
(0.625725 0.0130631 0)
(0.314665 0.0040865 0)
(0.0555208 0.000202176 0)
(0.112983 0.00028594 0)
(0.671962 0.0066936 0)
(0.961547 0.011952 0)
(1.12521 0.0159397 0)
(1.15861 0.0202129 0)
(1.14118 0.0262406 0)
(1.12111 0.03298 0)
(1.10405 0.0398039 0)
(1.08826 0.0460086 0)
(1.07335 0.0505622 0)
(1.06209 0.0521644 0)
(1.05707 0.0512533 0)
(1.05854 0.0491313 0)
(1.06784 0.0466065 0)
(1.07701 0.0441015 0)
(1.04246 0.0384318 0)
(0.879169 0.0273122 0)
(0.593367 0.0143111 0)
(0.291188 0.0044828 0)
(0.0494531 0.000220697 0)
(0.120732 0.000401426 0)
(0.692763 0.00942676 0)
(0.976804 0.0171327 0)
(1.13696 0.0229603 0)
(1.16961 0.0283967 0)
(1.1516 0.0355537 0)
(1.13017 0.0432984 0)
(1.11122 0.0509489 0)
(1.09307 0.0575768 0)
(1.07544 0.0619508 0)
(1.06164 0.0627674 0)
(1.05471 0.0608305 0)
(1.055 0.0577365 0)
(1.06385 0.0543125 0)
(1.06993 0.0508701 0)
(1.02462 0.0434486 0)
(0.846781 0.0303819 0)
(0.557782 0.0158126 0)
(0.265404 0.00492766 0)
(0.0428212 0.000238378 0)
(0.131379 0.000574824 0)
(0.72129 0.0131692 0)
(0.998767 0.0238079 0)
(1.15288 0.0318361 0)
(1.18301 0.0387918 0)
(1.16378 0.0474467 0)
(1.1405 0.056362 0)
(1.11905 0.0648438 0)
(1.09793 0.0717582 0)
(1.07704 0.075708 0)
(1.06031 0.075446 0)
(1.05125 0.0722192 0)
(1.05016 0.0679982 0)
(1.05841 0.0635208 0)
(1.06064 0.0588633 0)
(1.00283 0.0495244 0)
(0.809901 0.0340767 0)
(0.518214 0.0175425 0)
(0.236975 0.00539225 0)
(0.035629 0.000252075 0)
(0.146187 0.00085046 0)
(0.759495 0.0185155 0)
(1.02903 0.0327257 0)
(1.17395 0.0434462 0)
(1.19963 0.0523939 0)
(1.17797 0.062908 0)
(1.15201 0.073086 0)
(1.12726 0.0822778 0)
(1.10245 0.0891665 0)
(1.07774 0.0922319 0)
(1.05776 0.0904572 0)
(1.0464 0.0856468 0)
(1.04388 0.0800464 0)
(1.05113 0.0743509 0)
(1.04853 0.0683973 0)
(0.976245 0.0567291 0)
(0.76762 0.0384018 0)
(0.473918 0.0194401 0)
(0.205721 0.00583081 0)
(0.0279623 0.000257574 0)
(0.167294 0.00132398 0)
(0.810524 0.0266206 0)
(1.07013 0.0454381 0)
(1.20123 0.0595907 0)
(1.22015 0.0712253 0)
(1.19433 0.0834043 0)
(1.16457 0.094694 0)
(1.13561 0.104146 0)
(1.1064 0.110378 0)
(1.07734 0.111893 0)
(1.05379 0.108061 0)
(1.03999 0.101318 0)
(1.03605 0.0941444 0)
(1.04193 0.0872292 0)
(1.03298 0.0796218 0)
(0.943826 0.0650343 0)
(0.719013 0.043299 0)
(0.424366 0.021403 0)
(0.171804 0.00618347 0)
(0.0200253 0.000250628 0)
(0.198056 0.00237685 0)
(0.87998 0.0402239 0)
(1.12547 0.0657931 0)
(1.23508 0.0838094 0)
(1.24426 0.0980206 0)
(1.21229 0.111347 0)
(1.17741 0.122868 0)
(1.14321 0.131502 0)
(1.10888 0.135984 0)
(1.0751 0.134946 0)
(1.04793 0.128305 0)
(1.03178 0.119173 0)
(1.02645 0.110247 0)
(1.03057 0.102126 0)
(1.01331 0.0924671 0)
(0.904356 0.0743044 0)
(0.663267 0.0485073 0)
(0.369907 0.0232942 0)
(0.136337 0.00642011 0)
(0.0122701 0.00022689 0)
(0.23999 0.00857718 5.33815e-20)
(0.971857 0.0674164 4.64718e-20)
(1.19284 0.0999438 -1.61557e-20)
(1.27253 0.119715 0)
(1.2693 0.136494 -4.03122e-34)
(1.22984 0.149207 5.87006e-21)
(1.18903 0.159196 -1.04396e-20)
(1.14902 0.165593 0)
(1.1092 0.167264 2.11227e-34)
(1.07038 0.162898 -1.26215e-20)
(1.03925 0.15298 0)
(1.02047 0.141241 -1.48429e-20)
(1.01358 0.130544 -4.36843e-20)
(1.01563 0.121497 -2.06141e-20)
(0.987035 0.109965 -6.18663e-21)
(0.853223 0.086958 -3.67307e-21)
(0.59444 0.0551554 0)
(0.30806 0.0256196 2.57094e-21)
(0.099831 0.00710363 3.03603e-21)
(0.00503355 0.000309498 5.4673e-20)
(0.269352 0.02394 4.07949e-20)
(1.04761 0.109917 5.2335e-22)
(1.24819 0.148691 4.39282e-21)
(1.3062 0.168609 0)
(1.29129 0.18524 -2.07639e-20)
(1.2448 0.195814 -2.34183e-20)
(1.198 0.203494 -1.06125e-20)
(1.15203 0.207412 -3.73562e-20)
(1.10636 0.206302 0)
(1.06185 0.198754 5.38881e-20)
(1.02593 0.185734 5.31909e-20)
(1.0038 0.171539 1.57636e-20)
(0.994621 0.158784 5.71951e-20)
(0.99128 0.147399 8.01105e-20)
(0.947142 0.132417 0)
(0.785675 0.102791 1.1277e-19)
(0.514149 0.0632942 1.61841e-19)
(0.243249 0.0282913 1.798e-19)
(0.0648384 0.00731798 -2.05631e-19)
(-0.00178853 -7.86602e-05 -3.86459e-21)
(0.270434 0.0396395 0)
(1.0954 0.165086 7.59635e-21)
(1.28538 0.208674 0)
(1.33235 0.228114 -2.81866e-20)
(1.30845 0.241663 0)
(1.25598 0.248438 -4.6557e-20)
(1.20358 0.252477 2.18228e-20)
(1.15198 0.252926 -7.57371e-20)
(1.10074 0.248273 -1.56591e-21)
(1.05078 0.237022 2.80244e-20)
(1.01022 0.220525 1.17027e-19)
(0.984768 0.20365 -2.8336e-22)
(0.972901 0.188986 -4.15902e-20)
(0.964529 0.175656 -7.56283e-20)
(0.910595 0.156706 8.94778e-20)
(0.738346 0.11975 -1.58426e-19)
(0.470523 0.0724761 -2.09505e-20)
(0.216082 0.0321039 0)
(0.0527666 0.0077678 4.63894e-26)
(-0.00413227 -0.000606214 0)
(0.26428 0.0532697 1.09051e-19)
(1.12118 0.223626 -5.17891e-20)
(1.30835 0.273278 -3.79159e-20)
(1.34957 0.292786 1.35892e-20)
(1.31936 0.302419 -2.2742e-20)
(1.2624 0.304792 9.79891e-20)
(1.20541 0.304594 4.57624e-20)
(1.14891 0.300996 0)
(1.09263 0.292302 -1.41756e-19)
(1.03756 0.276919 0)
(0.992574 0.256738 -6.16534e-20)
(0.963935 0.237158 -7.56634e-20)
(0.949654 0.220621 -4.53683e-20)
(0.937378 0.20529 -5.50008e-20)
(0.878543 0.182466 0)
(0.70649 0.139285 0)
(0.450434 0.0852248 -1.36641e-19)
(0.211318 0.0389537 2.70463e-20)
(0.0533546 0.0095766 -1.58236e-20)
(-0.00428481 -0.00086423 -1.85203e-20)
(0.257051 0.0653784 -5.05188e-20)
(1.13263 0.282095 0)
(1.321 0.338927 8.10639e-20)
(1.35879 0.358948 3.91532e-20)
(1.32415 0.364728 5.20862e-20)
(1.26393 0.36273 0)
(1.20331 0.35823 4.52701e-20)
(1.14274 0.350414 8.43453e-20)
(1.08207 0.337498 7.29792e-20)
(1.02242 0.317924 1.32257e-19)
(0.973382 0.294244 0)
(0.941675 0.272193 -1.63466e-19)
(0.924833 0.253723 -9.82151e-20)
(0.909149 0.235981 -5.79968e-20)
(0.849117 0.20961 3.5569e-19)
(0.683868 0.16141 4.23078e-20)
(0.443498 0.101563 1.98902e-19)
(0.217899 0.0487328 -9.41257e-19)
(0.061627 0.0135322 5.57717e-19)
(-0.00218959 -0.000578497 -6.72133e-19)
(0.250213 0.0763653 -3.27714e-20)
(1.13501 0.338664 9.43851e-21)
(1.32616 0.403698 -9.60031e-21)
(1.36161 0.424708 -4.24028e-20)
(1.32376 0.426897 -4.56171e-20)
(1.26114 0.420728 1.78456e-21)
(1.19764 0.412074 -4.90281e-20)
(1.13367 0.400103 8.76427e-20)
(1.06926 0.383036 -1.5718e-19)
(1.00564 0.359377 0)
(0.952983 0.332184 -7.42583e-20)
(0.918363 0.307417 -1.62032e-21)
(0.898782 0.28679 -1.07459e-19)
(0.880392 0.267198 0)
(0.820393 0.238086 -7.71275e-20)
(0.66501 0.18575 -1.83236e-19)
(0.441752 0.120095 4.90084e-19)
(0.228163 0.0610331 -4.82285e-19)
(0.0728792 0.0194363 6.84907e-19)
(0.00101563 0.000253472 -7.11674e-19)
(0.244567 0.0865777 -4.10466e-22)
(1.13182 0.392668 -5.73464e-21)
(1.32597 0.466572 -3.06859e-20)
(1.35949 0.488836 1.82071e-20)
(1.31925 0.487862 -2.32089e-20)
(1.25483 0.477798 0)
(1.18898 0.465214 -4.63517e-20)
(1.12218 0.449279 -9.20036e-20)
(1.05455 0.428249 -8.19357e-20)
(0.987429 0.400583 0)
(0.931463 0.369617 -7.7298e-20)
(0.89414 0.341828 -9.52649e-20)
(0.872226 0.319198 1.16595e-19)
(0.852044 0.298429 -7.07081e-20)
(0.792553 0.266803 -3.36882e-19)
(0.646853 0.210733 2.00634e-19)
(0.439965 0.139848 5.99623e-20)
(0.237873 0.0747142 0)
(0.0837702 0.0264298 -6.6291e-19)
(0.00433991 0.00140855 -2.43153e-20)
(0.240183 0.096324 -1.48164e-21)
(1.1253 0.443898 3.36987e-21)
(1.32191 0.527047 1.51052e-20)
(1.35367 0.550619 6.33614e-20)
(1.31155 0.546905 -8.78267e-20)
(1.24574 0.533296 9.72081e-20)
(1.17798 0.517057 9.97659e-20)
(1.10879 0.497433 -1.47082e-19)
(1.03836 0.472688 5.00316e-20)
(0.968038 0.441083 -3.25671e-19)
(0.908961 0.406278 -8.71467e-20)
(0.869253 0.375691 0)
(0.845647 0.351641 1.26396e-19)
(0.823985 0.329735 1.51304e-19)
(0.764684 0.295047 1.81203e-19)
(0.628064 0.235135 -2.17977e-19)
(0.435738 0.159928 -6.45749e-20)
(0.243956 0.0889041 7.59273e-20)
(0.0922625 0.0338152 0)
(0.0072418 0.00273954 -5.2771e-20)
(0.236939 0.105758 -6.92668e-21)
(1.11697 0.492452 -2.88272e-21)
(1.31528 0.585345 -1.44465e-20)
(1.34514 0.609714 3.98734e-20)
(1.30146 0.603592 -4.08485e-20)
(1.23455 0.586778 -4.06053e-21)
(1.16522 0.56723 -1.0873e-19)
(1.09401 0.54426 -5.31407e-20)
(1.02109 0.516067 -1.42261e-19)
(0.947757 0.480684 2.74685e-22)
(0.885766 0.442329 -2.73255e-19)
(0.844023 0.409525 2.29171e-19)
(0.819061 0.384347 -1.38665e-19)
(0.795625 0.360535 1.66568e-19)
(0.735948 0.322047 0)
(0.607886 0.258488 -1.1821e-19)
(0.428242 0.179397 -2.52313e-22)
(0.245419 0.102375 -3.3037e-19)
(0.0970805 0.0405988 -4.85991e-20)
(0.00927043 0.00396611 0)
(0.234695 0.114998 0)
(1.10776 0.538533 4.78169e-22)
(1.30672 0.640814 -1.93971e-20)
(1.33466 0.665967 -3.78586e-20)
(1.28962 0.657692 -5.01793e-20)
(1.22183 0.638009 0)
(1.15122 0.615512 -5.02798e-20)
(1.07827 0.589559 -1.11634e-21)
(1.00307 0.558217 3.04704e-19)
(0.926907 0.519329 -4.48328e-20)
(0.86224 0.477892 -1.9712e-19)
(0.818701 0.443231 1.1933e-19)
(0.792299 0.41647 -2.15954e-21)
(0.766648 0.389592 1.77004e-19)
(0.706583 0.346732 1.0918e-19)
(0.585945 0.279782 -2.55128e-19)
(0.417267 0.19685 3.02191e-19)
(0.242204 0.113756 8.93806e-20)
(0.0977096 0.0458615 3.68495e-19)
(0.0102098 0.00484021 -9.85682e-19)
(0.233389 0.124179 -9.51132e-21)
(1.09827 0.582335 8.3275e-21)
(1.29702 0.693379 -1.92748e-21)
(1.32279 0.719342 3.22456e-20)
(1.27657 0.709098 0)
(1.20808 0.686867 -4.64777e-20)
(1.13641 0.661792 1.67836e-19)
(1.06194 0.633211 1.16751e-19)
(0.984629 0.599024 0)
(0.905799 0.556977 -6.43657e-19)
(0.838661 0.512851 5.32295e-19)
(0.793375 0.476196 0)
(0.765188 0.446896 1.61625e-19)
(0.737003 0.415927 -2.15795e-21)
(0.676831 0.368777 -3.48327e-19)
(0.562506 0.298619 1.36485e-19)
(0.403108 0.211607 0)
(0.234887 0.122549 4.81742e-19)
(0.0951188 0.0492413 0)
(0.0102397 0.00527772 -4.65691e-19)
(0.232844 0.133371 1.35578e-20)
(1.08899 0.623955 1.68936e-20)
(1.28636 0.743126 -3.16216e-22)
(1.31 0.769824 0)
(1.26275 0.757799 -4.48568e-20)
(1.19369 0.73333 0)
(1.12115 0.706016 -1.67055e-19)
(1.04532 0.675137 -5.48977e-20)
(0.966042 0.638413 5.39877e-20)
(0.884704 0.593579 -3.18198e-19)
(0.815193 0.546955 5.50453e-20)
(0.768036 0.507779 0)
(0.737692 0.474971 -3.44861e-19)
(0.706961 0.43952 2.14416e-21)
(0.647045 0.388577 0)
(0.537854 0.315188 1.77081e-21)
(0.385743 0.223426 4.39468e-19)
(0.223716 0.128374 -4.15692e-19)
(0.0895944 0.0506413 1.22406e-19)
(0.0094341 0.00523908 0)
(0.232732 0.142437 0)
(1.08012 0.66353 2.43196e-20)
(1.27511 0.790204 9.71571e-21)
(1.29667 0.817466 -2.44163e-21)
(1.24849 0.803833 -1.68255e-20)
(1.17899 0.777409 -1.04296e-19)
(1.10573 0.748174 6.2163e-20)
(1.02866 0.715292 -6.41188e-20)
(0.947552 0.676328 2.39957e-19)
(0.863823 0.629067 -5.0795e-19)
(0.791912 0.579947 -3.61001e-21)
(0.742642 0.537609 -1.51406e-19)
(0.709903 0.500626 5.58829e-19)
(0.676899 0.460775 -2.49948e-21)
(0.617436 0.406357 -2.69398e-19)
(0.512078 0.329155 -4.81006e-19)
(0.365599 0.231976 0)
(0.209176 0.131062 0)
(0.0817466 0.0501766 1.32114e-19)
(0.00816369 0.00487651 -7.74627e-20)
(0.233182 0.151506 2.3682e-20)
(1.07169 0.700887 -5.9654e-20)
(1.26361 0.834665 -1.06993e-20)
(1.28308 0.862348 0)
(1.23406 0.847265 -1.56615e-21)
(1.16424 0.819145 -9.77972e-20)
(1.09039 0.78827 1.51689e-19)
(1.01219 0.753646 2.54142e-19)
(0.929361 0.712745 3.12175e-19)
(0.843321 0.663384 -4.14955e-19)
(0.768874 0.611683 -4.56029e-19)
(0.717182 0.565656 4.04663e-19)
(0.681941 0.52416 0)
(0.647015 0.480075 -1.22244e-19)
(0.587948 0.422074 -2.91116e-19)
(0.4852 0.340254 -3.45024e-19)
(0.343075 0.237014 -4.0896e-19)
(0.191938 0.130597 1.20857e-19)
(0.0719568 0.0477639 -7.11008e-20)
(0.00649615 0.00414951 2.55963e-22)
(0.233748 0.160479 0)
(1.06387 0.736587 0)
(1.25204 0.876618 2.58735e-21)
(1.26943 0.904571 0)
(1.21968 0.888191 4.27433e-20)
(1.14964 0.858601 6.82872e-20)
(1.0753 0.826321 0)
(0.996081 0.790192 3.04703e-20)
(0.911642 0.747647 5.21179e-19)
(0.823333 0.696488 -9.53041e-19)
(0.746141 0.642147 0)
(0.691684 0.592129 -2.60017e-19)
(0.65387 0.54599 -3.00609e-21)
(0.617285 0.497689 -2.39391e-21)
(0.55844 0.435605 3.10735e-19)
(0.457393 0.34834 -3.10669e-22)
(0.318289 0.238477 -8.79413e-19)
(0.172603 0.126954 2.59715e-19)
(0.0612915 0.0437763 7.67354e-20)
(0.00468045 0.0031866 0)
(0.234341 0.169287 -1.06405e-19)
(1.0564 0.770589 -4.71771e-20)
(1.24049 0.916122 -4.97505e-20)
(1.2559 0.944248 1.17941e-20)
(1.20552 0.926689 6.002e-20)
(1.13534 0.895841 0)
(1.0606 0.86236 9.27439e-20)
(0.980462 0.82494 -6.75008e-20)
(0.894529 0.781039 3.86447e-21)
(0.803978 0.72837 6.99798e-20)
(0.723796 0.671423 5.8957e-19)
(0.666215 0.617357 -9.12301e-20)
(0.6257 0.566553 -3.43469e-19)
(0.587532 0.513765 -1.41972e-19)
(0.528704 0.446748 1.68736e-19)
(0.42881 0.353129 -1.24363e-22)
(0.292273 0.236216 2.3668e-19)
(0.152399 0.120533 -5.5813e-19)
(0.0504615 0.0386396 6.59641e-19)
(0.00287023 0.00209527 9.6195e-20)
(0.234795 0.17781 4.21589e-20)
(1.04928 0.803003 -2.78131e-20)
(1.2291 0.953284 6.25706e-21)
(1.2426 0.981503 1.84764e-20)
(1.19168 0.962871 -5.98116e-21)
(1.12145 0.930932 -1.20587e-19)
(1.0464 0.896424 2.76205e-20)
(0.965441 0.857902 -2.81741e-19)
(0.878133 0.812917 -5.74542e-19)
(0.785355 0.759015 -5.67677e-19)
(0.701959 0.699644 0)
(0.640875 0.641695 -3.99443e-19)
(0.597401 0.586251 4.94129e-19)
(0.557445 0.528394 0)
(0.49842 0.455176 -3.6095e-19)
(0.399611 0.354041 2.15367e-19)
(0.265927 0.22995 -2.54077e-19)
(0.132649 0.111744 -3.00015e-19)
(0.0403309 0.0328851 -5.30842e-19)
(0.00122588 0.00099685 -4.13837e-19)
(0.235559 0.186183 -4.93897e-20)
(1.04238 0.833805 2.97953e-20)
(1.21793 0.988181 6.48338e-20)
(1.22962 1.01642 3.37436e-20)
(1.17827 0.996827 1.65765e-20)
(1.10806 0.963953 -6.68662e-20)
(1.03276 0.928554 9.15053e-20)
(0.951099 0.889117 -2.90107e-19)
(0.862526 0.843303 -3.40126e-19)
(0.767559 0.788442 5.93889e-19)
(0.680753 0.72695 1.29298e-18)
(0.615793 0.665464 0)
(0.568935 0.60545 0)
(0.526621 0.541735 -1.63276e-19)
(0.46701 0.460537 0)
(0.36971 0.350142 4.62952e-19)
(0.240391 0.21895 5.46116e-19)
(0.115297 0.100748 0)
(0.0321626 0.0270726 0)
(-0.000104757 4.89264e-05 4.44317e-19)
(0.235954 0.194097 5.80994e-20)
(1.03573 0.862985 4.64381e-20)
(1.20705 1.02094 4.8064e-20)
(1.21702 1.04914 -4.06536e-20)
(1.16535 1.02866 1.0213e-20)
(1.09521 0.994974 7.10949e-20)
(1.01976 0.958803 -1.25884e-19)
(0.937492 0.918617 -7.39345e-23)
(0.847774 0.872207 -5.01317e-21)
(0.750665 0.816661 -5.2222e-21)
(0.660331 0.753464 6.65514e-19)
(0.591131 0.688923 0)
(0.540323 0.624493 4.98623e-19)
(0.494665 0.554088 3.4786e-19)
(0.433551 0.462763 8.40183e-19)
(0.338388 0.340271 2.48923e-19)
(0.216705 0.201064 -2.93914e-19)
(0.10415 0.0854264 -1.72634e-19)
(0.0309561 0.0203368 0)
(0.000509014 -0.00015302 4.76998e-19)
(0.236636 0.202005 -1.34984e-19)
(1.0293 0.890631 0)
(1.19644 1.05161 6.09637e-20)
(1.20484 1.07974 -3.76625e-20)
(1.15296 1.05847 6.98811e-22)
(1.08294 1.02407 -7.98593e-20)
(1.00743 0.987226 2.46731e-19)
(0.924652 0.946439 -2.36075e-20)
(0.83391 0.899642 0)
(0.73474 0.843664 -6.55226e-19)
(0.640842 0.779261 -1.44588e-18)
(0.567085 0.712274 5.88231e-20)
(0.511693 0.643695 6.85988e-19)
(0.461324 0.565932 0)
(0.396875 0.462439 5.66068e-19)
(0.303393 0.323729 0)
(0.19315 0.171657 0)
(0.10287 0.0534448 -1.86643e-19)
(0.0567227 0.00176728 0)
(0.0280618 0.011664 1.27754e-19)
(0.236927 0.209297 -1.54242e-19)
(1.02305 0.917099 0)
(1.18612 1.0804 1.05105e-19)
(1.19304 1.10845 0)
(1.14108 1.0865 -5.14642e-21)
(1.0712 1.05154 0)
(0.995696 1.01414 1.25871e-20)
(0.912488 0.97293 3.98632e-20)
(0.820813 0.925978 4.25211e-20)
(0.71963 0.869866 -7.18752e-19)
(0.622137 0.804825 4.34861e-20)
(0.543474 0.736153 4.72231e-19)
(0.482698 0.663758 6.68505e-19)
(0.425784 0.578021 8.99759e-20)
(0.355074 0.461132 4.42935e-19)
(0.260079 0.301807 0)
(0.15836 0.128153 6.19206e-19)
(0.0832081 -0.000226037 -3.62729e-19)
(0.0434698 0.0451871 4.20609e-19)
(-0.0690766 0.433962 -4.96179e-19)
(0.237189 0.216374 1.29716e-19)
(1.01673 0.94216 1.94991e-19)
(1.17599 1.10763 0)
(1.18147 1.13572 5.17108e-21)
(1.1295 1.11334 2.41094e-20)
(1.05973 1.07804 1.03024e-19)
(0.984267 1.04033 8.67031e-20)
(0.900601 0.999032 0)
(0.807966 0.952309 2.83387e-19)
(0.704685 0.896571 -3.76894e-20)
(0.603322 0.831612 0)
(0.519109 0.762246 0)
(0.451648 0.686312 5.97534e-19)
(0.386029 0.591423 -2.77545e-19)
(0.305047 0.461132 -4.47711e-19)
(0.203551 0.278924 0)
(0.0920281 0.124584 3.11576e-19)
(0.00534102 0.43919 -3.60897e-19)
(0.0343413 1.88498 -1.98373e-19)
(0.0638632 2.80886 -2.53167e-19)
(0.237266 0.222599 -9.97943e-20)
(1.01054 0.965997 -2.54635e-19)
(1.16608 1.13328 6.50351e-20)
(1.17015 1.16141 4.64388e-20)
(1.11827 1.13876 0)
(1.04858 1.10329 6.0023e-20)
(0.97333 1.06549 1.19896e-19)
(0.889176 1.02432 -1.94067e-20)
(0.795626 0.978122 4.21598e-20)
(0.690274 0.92318 6.85189e-19)
(0.584995 0.859012 7.29968e-19)
(0.49495 0.7902 5.27403e-19)
(0.419483 0.711308 5.9963e-19)
(0.343762 0.604997 -6.4966e-19)
(0.252626 0.46557 -6.74483e-19)
(0.134845 0.312365 0)
(0.0469937 0.829432 0)
(0.103564 2.54814 1.7255e-19)
(0.104556 3.1992 0)
(0.10763 3.38727 4.13731e-19)
(0.2399 0.228258 0)
(1.00508 0.988792 0)
(1.15614 1.15722 0)
(1.15882 1.18531 1.53945e-20)
(1.10708 1.16251 2.54138e-20)
(1.03753 1.12715 2.99149e-20)
(0.962784 1.08953 7.75176e-20)
(0.878169 1.04869 -1.90007e-20)
(0.783757 1.00328 3.55054e-19)
(0.676427 0.94957 -9.52868e-21)
(0.567316 0.886946 1.44188e-18)
(0.47136 0.819886 -6.06058e-20)
(0.386476 0.739717 7.26282e-20)
(0.30155 0.616303 9.37109e-20)
(0.190164 0.481021 -3.70522e-21)
(0.104933 0.962056 1.8139e-21)
(0.143285 2.71318 -9.02346e-19)
(0.152466 3.29118 -3.40322e-19)
(0.140772 3.42613 1.77245e-19)
(0.127393 3.44853 -1.97647e-19)
(0.157378 0.184486 6.08715e-20)
(0.994325 1.01331 0)
(1.14589 1.17967 -1.38404e-19)
(1.14804 1.20787 -1.33738e-19)
(1.09675 1.18542 8.2358e-20)
(1.02752 1.15031 -2.57333e-20)
(0.952598 1.11247 -8.04635e-20)
(0.86771 1.07226 2.15011e-19)
(0.772525 1.02796 -2.91337e-19)
(0.663426 0.975913 0)
(0.550694 0.915628 7.09171e-19)
(0.44895 0.851201 -4.30129e-19)
(0.353058 0.77458 0)
(0.255206 0.628754 8.71616e-20)
(0.154742 0.781213 2.08553e-19)
(0.157992 2.48175 -2.45809e-19)
(0.218131 3.32317 2.76678e-19)
(0.197081 3.44026 1.49754e-19)
(0.163605 3.46186 1.69244e-19)
(0.141321 3.47214 2.70447e-19)
(0.283299 0.267174 -1.09626e-19)
(0.97931 1.02339 0)
(1.12783 1.20509 1.5477e-19)
(1.13342 1.24012 1.57289e-19)
(1.07996 1.21873 -1.05378e-19)
(1.0102 1.18405 7.74286e-22)
(0.934364 1.14765 7.9948e-20)
(0.849053 1.1086 1.67503e-20)
(0.752722 1.0664 2.79774e-19)
(0.640831 1.01757 5.94372e-19)
(0.522684 0.962541 4.01616e-20)
(0.411113 0.903977 3.82236e-19)
(0.294025 0.825834 6.78191e-20)
(0.216187 0.952965 -8.56708e-20)
(0.232564 2.331 -1.95962e-19)
(0.29491 3.32656 1.89586e-19)
(0.27788 3.4708 -2.10445e-19)
(0.24205 3.49245 -1.21949e-19)
(0.204423 3.52002 -1.04196e-19)
(0.152619 3.51372 -1.22211e-20)
(0.271216 0.264017 0)
(0.977112 1.04624 4.79052e-20)
(1.11984 1.22866 -3.29375e-20)
(1.12329 1.26375 -1.98738e-20)
(1.06956 1.24208 -7.92124e-20)
(0.999891 1.20761 5.20738e-21)
(0.923739 1.17128 -4.30233e-20)
(0.838309 1.133 1.51193e-20)
(0.741556 1.0922 -2.92384e-19)
(0.628433 1.04578 -1.40422e-20)
(0.507676 0.994943 -1.2846e-18)
(0.392011 0.941519 5.43782e-20)
(0.282518 0.893679 -6.41186e-20)
(0.257304 1.48354 -7.94866e-20)
(0.332941 3.09515 1.78586e-20)
(0.353909 3.46903 6.76207e-22)
(0.313069 3.52572 3.0848e-19)
(0.275367 3.55172 1.52107e-19)
(0.226345 3.57514 -4.00837e-20)
(0.166982 3.57098 -5.83274e-20)
(0.254742 0.262332 1.2436e-19)
(0.973305 1.07174 3.30394e-19)
(1.11141 1.25439 -9.50666e-20)
(1.1126 1.2888 -7.5138e-20)
(1.05863 1.2668 0)
(0.989158 1.23233 4.08909e-20)
(0.912985 1.19616 -4.69108e-20)
(0.827713 1.15861 1.33776e-20)
(0.73084 1.11928 -3.24461e-20)
(0.616993 1.07549 -5.40975e-19)
(0.494429 1.02918 -5.94281e-19)
(0.376533 0.981254 -4.47576e-19)
(0.281985 1.0234 -4.85723e-19)
(0.326006 2.18726 5.01011e-19)
(0.419465 3.37683 4.21783e-19)
(0.398046 3.52766 0)
(0.352023 3.57231 0)
(0.313692 3.61313 -3.14449e-20)
(0.262108 3.67366 0)
(0.179082 3.64953 -3.67963e-20)
(0.243784 0.26411 -1.89736e-19)
(0.967502 1.09831 -2.84827e-19)
(1.10158 1.28135 0)
(1.10059 1.31468 6.20069e-21)
(1.04647 1.29214 -9.7526e-20)
(0.977308 1.25753 8.46231e-20)
(0.901454 1.22154 -2.10233e-20)
(0.816538 1.18465 8.28146e-21)
(0.719768 1.14668 -2.09688e-19)
(0.605593 1.10548 2.73415e-20)
(0.48207 1.06383 0)
(0.362274 1.02435 0)
(0.307029 1.2743 -4.45256e-19)
(0.409027 2.86611 1.81476e-19)
(0.491491 3.48655 2.33747e-19)
(0.444153 3.56072 0)
(0.4036 3.62382 -1.59261e-20)
(0.368183 3.68358 -4.11491e-20)