/*--------------------------------*- C++ -*----------------------------------*\
  =========                 |
  \\      /  F ield         | OpenFOAM: The Open Source CFD Toolbox
   \\    /   O peration     | Website:  https://openfoam.org
    \\  /    A nd           | Version:  9
     \\/     M anipulation  |
\*---------------------------------------------------------------------------*/
FoamFile
{
    format      ascii;
    class       surfaceScalarField;
    location    "13";
    object      phi;
}
// * * * * * * * * * * * * * * * * * * * * * * * * * * * * * * * * * * * * * //

dimensions      [0 3 -1 0 0 0 0];

internalField   nonuniform List<scalar> 
17370
(
-0.0916007
0.0960456
0.284566
-0.0776548
0.059497
0.364933
-0.0431172
0.031692
0.427593
-0.0223867
0.0163231
0.505315
-0.0117056
0.00879892
0.602309
-0.00655455
0.00505294
0.720559
-0.00381131
0.00293528
0.863783
-0.00217304
0.00160844
1.03601
-0.00109653
0.000699436
1.2429
-0.000319819
-5.121e-05
1.49156
0.000410562
-0.000796292
1.49158
0.00118962
-0.0016944
1.2432
0.00225271
-0.00300942
1.03639
0.0038823
-0.00512136
0.864146
0.0066211
-0.00886097
0.721297
0.0117565
-0.0163598
0.603818
0.0224116
-0.0317051
0.508733
0.0431199
-0.0594935
0.432542
0.0776525
-0.0960435
0.365167
0.0916082
0.197403
-0.12715
0.0881182
0.0390322
-0.364422
0.354111
-0.0713869
0.0816981
-0.446656
0.454358
-0.0791252
0.071423
-0.521035
0.529283
-0.0634559
0.0552079
-0.61298
0.620808
-0.0477386
0.0399105
-0.727118
0.733599
-0.0332819
0.0268011
-0.867549
0.872307
-0.0216706
0.0169133
-1.03852
1.04177
-0.0132945
0.0100508
-1.24467
1.24697
-0.00758916
0.00528798
-1.49277
1.49472
-0.00340536
0.00145805
-1.49264
1.49438
0.000258839
-0.00200172
-1.24406
1.24592
0.00392397
-0.00578058
-1.03758
1.04001
0.00805396
-0.0104862
-0.866175
0.869756
0.0136927
-0.0172738
-0.724581
0.729685
0.0219928
-0.0270964
-0.609047
0.615653
0.0335568
-0.0401629
-0.515155
0.522594
0.0479591
-0.0553972
-0.439895
0.44782
0.0636028
-0.0715276
-0.374793
0.377375
0.0791726
-0.0817541
-0.257012
0.22463
0.07143
-0.0390479
-0.0689595
0.0594567
0.00950279
-0.051504
0.05817
-0.374904
0.368238
-0.0572898
0.0535135
-0.453978
0.457754
-0.0482041
0.0437842
-0.527712
0.532132
-0.0393274
0.0354297
-0.620872
0.62477
-0.0311485
0.0270667
-0.734601
0.738683
-0.0226381
0.0187436
-0.873798
0.877693
-0.0147681
0.0114196
-1.04318
1.04653
-0.0080638
0.00521967
-1.24842
1.25127
-0.00226866
-0.000464805
-1.49665
1.49938
0.00317535
-0.00610004
-1.49715
1.50007
0.00890458
-0.0122044
-1.24988
1.25318
0.0155011
-0.0194223
-1.04551
1.04944
0.0232698
-0.0276476
-0.877068
0.881446
0.031681
-0.0359042
-0.739086
0.743309
0.039754
-0.0441634
-0.626164
0.630573
0.0485468
-0.0538221
-0.535156
0.540431
0.0575599
-0.058396
-0.458208
0.459044
0.0516677
-0.0316243
-0.337076
0.317032
0.00953139
-0.0688857
0.0593543
-0.0537847
0.0497989
0.00398587
-0.0323281
0.0424066
-0.359044
0.348965
-0.0457916
0.0449625
-0.459652
0.460481
-0.0417868
0.0384381
-0.536034
0.539383
-0.0347351
0.031451
-0.62836
0.631644
-0.0279627
0.0249291
-0.742003
0.745036
-0.0217286
0.0188156
-0.881123
0.884036
-0.0155724
0.0125524
-1.0498
1.05282
-0.00921357
0.00612778
-1.25429
1.25738
-0.00264632
-0.000724522
-1.50252
1.50589
0.00407601
-0.00750455
-1.50333
1.50676
0.0105335
-0.0137978
-1.25654
1.25981
0.0167364
-0.0198779
-1.05306
1.0562
0.0226992
-0.0258063
-0.885042
0.888149
0.0287564
-0.0321564
-0.746951
0.750351
0.0353548
-0.0389788
-0.634665
0.638289
0.042273
-0.045392
-0.544641
0.54776
0.0461643
-0.042701
-0.45742
0.453956
0.0325297
-0.0157984
-0.298139
0.281408
0.00401631
-0.0536523
0.049636
-0.0468164
0.0445188
0.00229755
-0.0211639
0.0307551
-0.338901
0.32931
-0.0360753
0.0369721
-0.460396
0.459499
-0.0358069
0.0336198
-0.542124
0.544311
-0.0310645
0.0286227
-0.634474
0.636916
-0.0258776
0.0233211
-0.74782
0.750376
-0.0204284
0.01775
-0.886786
0.889464
-0.0147421
0.0119309
-1.05568
1.05849
-0.00874454
0.00573137
-1.26045
1.26347
-0.00230333
-0.000968816
-1.50927
1.51254
0.00422649
-0.00759873
-1.51021
1.51358
0.0105252
-0.013594
-1.26296
1.26603
0.016289
-0.0191639
-1.05915
1.06202
0.0217251
-0.0244827
-0.891063
0.89382
0.0269254
-0.02959
-0.753341
0.756006
0.031958
-0.0344234
-0.641322
0.643787
0.0365279
-0.0375935
-0.549824
0.550889
0.0366005
-0.0311522
-0.44926
0.443812
0.0214266
-0.00931945
-0.267088
0.254981
0.00233779
-0.0466186
0.0442809
-0.0426878
0.0412194
0.00146842
-0.0139477
0.0218489
-0.320449
0.312547
-0.0275116
0.0293839
-0.458035
0.456163
-0.0291704
0.0279321
-0.545955
0.547193
-0.026317
0.0246987
-0.638919
0.640537
-0.0227488
0.0207719
-0.752699
0.754676
-0.018411
0.0160781
-0.892056
0.894388
-0.0133883
0.0108194
-1.06123
1.0638
-0.00789392
0.00509552
-1.26638
1.26918
-0.00186533
-0.00128818
-1.51573
1.51888
0.00441546
-0.00756214
-1.51684
1.51999
0.0102469
-0.0130231
-1.26899
1.27176
0.0154456
-0.0179751
-1.0648
1.06733
0.0201524
-0.0223446
-0.896394
0.898586
0.0241783
-0.0259798
-0.758274
0.760075
0.0274466
-0.02894
-0.645665
0.647158
0.0300735
-0.0301614
-0.551345
0.551433
0.0281542
-0.0223178
-0.438031
0.432194
0.0142508
-0.0059213
-0.244817
0.236488
0.00151472
-0.0424089
0.0408942
-0.0401144
0.0393793
0.000735066
-0.00755167
0.0129687
-0.305831
0.300414
-0.017935
0.020322
-0.453957
0.45157
-0.020843
0.0203376
-0.548098
0.548603
-0.0191919
0.0180089
-0.641963
0.643146
-0.0166458
0.0153212
-0.756321
0.757646
-0.0137723
0.0122457
-0.896274
0.8978
-0.0103962
0.00851787
-1.06602
1.0679
-0.00623168
0.00392334
-1.27177
1.27408
-0.00112278
-0.00169857
-1.52193
1.52475
0.00447225
-0.00714867
-1.52294
1.52562
0.00930403
-0.0113955
-1.27421
1.27631
0.0130759
-0.0146933
-1.06936
1.07098
0.016011
-0.0173386
-0.90031
0.901637
0.0184479
-0.0196034
-0.761566
0.762721
0.0206283
-0.0216021
-0.648457
0.649431
0.021948
-0.0212523
-0.551122
0.550426
0.0186873
-0.0135084
-0.426552
0.421373
0.00790223
-0.0030993
-0.229987
0.225184
0.000791003
-0.0397361
0.0389451
-0.0389551
0.0387477
0.000207443
-0.00330121
0.00654338
-0.296205
0.292963
-0.0102814
0.012582
-0.449194
0.446893
-0.0135465
0.0136611
-0.548754
0.548639
-0.0133906
0.013029
-0.643908
0.644269
-0.0124628
0.011802
-0.758603
0.759264
-0.0108501
0.00976398
-0.899101
0.900187
-0.00831597
0.00677171
-1.06957
1.07111
-0.00483569
0.00284058
-1.27616
1.27816
-0.000384692
-0.00208454
-1.52735
1.52982
0.00450594
-0.00682407
-1.52805
1.53037
0.00865181
-0.0103672
-1.27814
1.27985
0.0116829
-0.012863
-1.07235
1.07353
0.0136976
-0.0143667
-0.902608
0.903278
0.0148025
-0.0150946
-0.763406
0.763698
0.0152085
-0.0152782
-0.649947
0.650016
0.0149498
-0.0137467
-0.549467
0.548264
0.0112109
-0.00720767
-0.416806
0.412803
0.00373561
-0.00127926
-0.221751
0.219294
0.00027686
-0.0384603
0.0381834
-0.0386708
0.0386554
1.53668e-05
-0.00153804
0.00368154
-0.290394
0.288251
-0.00678095
0.0092701
-0.444562
0.442073
-0.0109703
0.0118124
-0.548193
0.547351
-0.0120284
0.0120118
-0.644403
0.644419
-0.0117064
0.0111883
-0.759831
0.760349
-0.0104124
0.00945984
-0.901125
0.902078
-0.008118
0.00659356
-1.07258
1.0741
-0.00458344
0.00246233
-1.28017
1.2823
0.000110684
-0.00264567
-1.53227
1.5348
0.00512715
-0.00753168
-1.53269
1.53509
0.00941033
-0.0110951
-1.28151
1.2832
0.0123047
-0.0132899
-1.07456
1.07555
0.0139209
-0.0143761
-0.903834
0.90429
0.0145879
-0.0145407
-0.763772
0.763725
0.0142887
-0.013775
-0.649713
0.649199
0.0126809
-0.0106889
-0.546714
0.544722
0.00791639
-0.00449894
-0.409181
0.405764
0.0020757
-0.000615979
-0.217467
0.216007
0.000100997
-0.0380276
0.0379266
-0.0386578
0.0386631
-5.27837e-06
-0.000943847
0.00256698
-0.286392
0.284769
-0.00540904
0.00831532
-0.439369
0.436462
-0.0110373
0.0127821
-0.546135
0.54439
-0.013773
0.0141137
-0.644269
0.643929
-0.0140483
0.0135153
-0.760793
0.761326
-0.0125398
0.0112739
-0.903177
0.904443
-0.00949367
0.00754454
-1.07582
1.07777
-0.00507209
0.00254448
-1.2846
1.28713
0.000491952
-0.0034669
-1.53752
1.5405
0.00636748
-0.00916993
-1.53767
1.54047
0.0113714
-0.0134218
-1.28505
1.2871
0.0149619
-0.0162818
-1.07669
1.07801
0.0171347
-0.017701
-0.904691
0.905257
0.0177687
-0.0173866
-0.763455
0.763073
0.0167393
-0.0153403
-0.64841
0.647011
0.0132313
-0.0101134
-0.542205
0.539087
0.00683875
-0.00359399
-0.402438
0.399193
0.00161863
-0.000510312
-0.214755
0.213646
0.000101852
-0.0378348
0.0377329
-0.0386754
0.0387002
-2.47798e-05
-0.000433322
0.00151155
-0.2834
0.282322
-0.00377293
0.00657487
-0.433503
0.430701
-0.00980096
0.0122806
-0.542183
0.539704
-0.0141666
0.0148512
-0.643478
0.642794
-0.0148446
0.0144657
-0.7618
0.762179
-0.0133967
0.0119503
-0.905827
0.907274
-0.00992924
0.00773783
-1.07989
1.08208
-0.00499703
0.00220839
-1.28984
1.29263
0.00115997
-0.00448598
-1.5437
1.54703
0.00770551
-0.0107778
-1.54347
1.54654
0.0132015
-0.0154281
-1.28928
1.29151
0.0170614
-0.0184414
-1.07941
1.08079
0.019272
-0.019648
-0.905791
0.906167
0.019605
-0.0191549
-0.762676
0.762226
0.0178712
-0.015451
-0.645054
0.642634
0.0125076
-0.00877492
-0.535522
0.531789
0.00551886
-0.00276798
-0.396133
0.393382
0.00125917
-0.000436158
-0.21268
0.211857
0.000106336
-0.0376256
0.0375192
-0.0387424
0.0388088
-6.63819e-05
9.44984e-05
0.000408049
-0.28154
0.281038
-0.00175337
0.00371691
-0.428252
0.426289
-0.00631346
0.0085558
-0.537208
0.534966
-0.0105162
0.0116732
-0.641723
0.640566
-0.0120963
0.0117717
-0.762597
0.762922
-0.0108884
0.00963893
-0.908698
0.909947
-0.00782576
0.00581505
-1.08424
1.08625
-0.003259
0.000636521
-1.29538
1.29801
0.00256096
-0.00570322
-1.55033
1.55347
0.00870426
-0.0115123
-1.54954
1.55235
0.013649
-0.0155682
-1.29366
1.29558
0.0169228
-0.0179675
-1.08205
1.0831
0.0185455
-0.018707
-0.906437
0.906598
0.0182835
-0.0170271
-0.761447
0.760191
0.0152044
-0.012532
-0.639942
0.63727
0.00968191
-0.00645496
-0.528188
0.524961
0.00393339
-0.0019855
-0.391021
0.389073
0.000954332
-0.000366704
-0.211163
0.210575
0.00010095
-0.0374152
0.0373143
-0.038898
0.039009
-0.000110971
0.000502923
-0.000475343
-0.280808
0.28078
-4.63052e-05
0.00103546
-0.424834
0.423845
-0.00252632
0.00393619
-0.533117
0.531707
-0.00524578
0.00607808
-0.639555
0.638723
-0.00651542
0.00647611
-0.763048
0.763087
-0.00597675
0.00512379
-0.910983
0.911836
-0.00377715
0.00220345
-1.08805
1.08962
-0.00013819
-0.00203064
-1.30042
1.30259
0.00464653
-0.00717874
-1.55635
1.55888
0.00954983
-0.0116704
-1.55486
1.55698
0.013211
-0.0144424
-1.29716
1.29839
0.0151379
-0.0154846
-1.0838
1.08414
0.0154042
-0.0149072
-0.906404
0.905907
0.0140377
-0.0126365
-0.758799
0.757397
0.0109899
-0.00883792
-0.634838
0.632686
0.00670257
-0.00445723
-0.522228
0.519983
0.00279315
-0.00152681
-0.387504
0.386238
0.000814467
-0.00034727
-0.210065
0.209598
0.000101973
-0.0372152
0.0371132
-0.039137
0.0392834
-0.000146431
0.000823028
-0.00108347
-0.280883
0.281143
0.00113
-0.000867453
-0.423255
0.422992
0.000284695
0.000329958
-0.530718
0.530103
-0.000925193
0.00130027
-0.638112
0.637736
-0.00146084
0.00135391
-0.763131
0.763238
-0.000939543
0.000281344
-0.912562
0.91322
0.000750428
-0.00195807
-1.09099
1.09219
0.00354883
-0.00520159
-1.30449
1.30614
0.00715345
-0.00897756
-1.56105
1.56287
0.0105962
-0.0119304
-1.55869
1.56002
0.012719
-0.0131882
-1.29926
1.29973
0.0133189
-0.0131116
-1.08418
1.08398
0.0126205
-0.0117883
-0.905206
0.904374
0.010787
-0.00946734
-0.756026
0.754707
0.00809544
-0.00647363
-0.630814
0.629193
0.00498201
-0.00348116
-0.518157
0.516657
0.00236609
-0.00145751
-0.385189
0.38428
0.000863846
-0.000398555
-0.209144
0.208678
0.000122211
-0.0370035
0.0368813
-0.0394479
0.0396309
-0.000182977
0.00109257
-0.00157948
-0.281522
0.282009
0.00199518
-0.00219837
-0.422988
0.423191
0.00224296
-0.00221062
-0.529817
0.529784
0.0021983
-0.00227219
-0.637599
0.637673
0.00248262
-0.00281716
-0.763454
0.763788
0.00336133
-0.00403211
-0.913862
0.914533
0.00496397
-0.00598584
-1.09328
1.0943
0.00727139
-0.00854935
-1.30758
1.30886
0.00997942
-0.0112244
-1.56439
1.56563
0.0122119
-0.0128752
-1.56102
1.56169
0.013124
-0.0130398
-1.29987
1.29978
0.0126952
-0.0120502
-1.08352
1.08288
0.0112766
-0.010264
-0.903439
0.902427
0.00922704
-0.00800564
-0.753442
0.752221
0.00684525
-0.00556762
-0.627775
0.626497
0.00444543
-0.00332414
-0.515391
0.514269
0.00244558
-0.00164242
-0.38345
0.382647
0.00103379
-0.000496139
-0.208185
0.207647
0.000155704
-0.0367446
0.0365889
-0.039839
0.0400702
-0.00023122
0.00140965
-0.00208949
-0.282583
0.283263
0.00277909
-0.00331121
-0.423531
0.424063
0.00377687
-0.0041587
-0.530003
0.530385
0.00458292
-0.00502666
-0.637965
0.638409
0.00559955
-0.00621642
-0.764274
0.764891
0.00700502
-0.0078325
-0.915263
0.91609
0.00885194
-0.00986872
-1.09529
1.0963
0.0110443
-0.0121222
-1.31001
1.31109
0.0132205
-0.0140488
-1.56664
1.56747
0.014553
-0.0146727
-1.56205
1.56217
0.0144383
-0.0139339
-1.2995
1.29899
0.0132467
-0.0123191
-1.08208
1.08115
0.0113511
-0.0102099
-0.901345
0.900203
0.0091267
-0.00792684
-0.751023
0.749823
0.00684309
-0.00569306
-0.625317
0.624167
0.00469819
-0.00368555
-0.513239
0.512226
0.00283943
-0.00198995
-0.381838
0.380988
0.00128645
-0.000628118
-0.207057
0.206399
0.000199505
-0.0364154
0.0362159
-0.0403329
0.0406268
-0.000293903
0.00180427
-0.00269822
-0.284037
0.284931
0.00364837
-0.0044429
-0.424708
0.425503
0.00523409
-0.00593221
-0.530954
0.531652
0.00671643
-0.00748355
-0.639089
0.639856
0.00840474
-0.00933327
-0.765682
0.766611
0.0104403
-0.0115197
-0.91701
0.91809
0.0127537
-0.0138998
-1.09733
1.09848
0.0151265
-0.0161553
-1.3121
1.31312
0.0170869
-0.0176468
-1.56814
1.5687
0.0178004
-0.0175176
-1.56207
1.56179
0.0169343
-0.0160271
-1.29826
1.29735
0.0150312
-0.0138164
-1.08007
1.07885
0.0126431
-0.0113293
-0.898967
0.897653
0.0101318
-0.00884545
-0.748589
0.747303
0.00770869
-0.00651659
-0.623032
0.62184
0.00548267
-0.00440644
-0.511223
0.510147
0.00346706
-0.00247452
-0.380086
0.379093
0.00161835
-0.000796703
-0.205671
0.204849
0.000255116
-0.035998
0.0357429
-0.0409616
0.0413379
-0.000376273
0.00230978
-0.00345992
-0.285945
0.287095
0.00469584
-0.00575119
-0.426433
0.427488
0.0068258
-0.00779221
-0.53257
0.533537
0.00890296
-0.010016
-0.640879
0.641992
0.011348
-0.012662
-0.767717
0.769031
0.0141798
-0.0155966
-0.919263
0.92068
0.0171317
-0.0184852
-1.09966
1.10102
0.0198692
-0.0209572
-1.31412
1.31521
0.021836
-0.0222221
-1.56913
1.56951
0.0220979
-0.0214564
-1.56131
1.56067
0.0205282
-0.0192507
-1.29625
1.29497
0.0179354
-0.0164035
-1.07746
1.07593
0.0149752
-0.0134184
-0.896188
0.894631
0.0120286
-0.0105562
-0.745915
0.744443
0.00926354
-0.00790648
-0.620611
0.619254
0.00671781
-0.00545691
-0.509049
0.507788
0.00432995
-0.00311174
-0.378023
0.376805
0.00204542
-0.00101166
-0.203946
0.202912
0.000326354
-0.0354739
0.0351476
-0.0417695
0.0422548
-0.00048529
0.00296969
-0.00444524
-0.288414
0.28989
0.00603089
-0.00737886
-0.428762
0.43011
0.00875185
-0.0100074
-0.534851
0.536106
0.0114785
-0.0129723
-0.64338
0.644874
0.0147761
-0.0165357
-0.770451
0.772211
0.0185312
-0.0203637
-0.922145
0.923978
0.0223234
-0.0240045
-1.10244
1.10412
0.0256521
-0.0268796
-1.31627
1.3175
0.0277757
-0.0280338
-1.56978
1.57004
0.0276547
-0.0266515
-1.55982
1.55882
0.0253555
-0.023662
-1.29347
1.29177
0.0219737
-0.0200537
-1.07416
1.07224
0.0182969
-0.0164125
-0.892842
0.890958
0.0147512
-0.0130058
-0.742787
0.741041
0.0114762
-0.00986222
-0.617818
0.616204
0.00843038
-0.0068837
-0.506511
0.504964
0.00547857
-0.00393955
-0.375512
0.373973
0.0025909
-0.00128326
-0.201794
0.200486
0.000416073
-0.0348203
0.0344042
-0.0428211
0.0434521
-0.000630972
0.00383654
-0.0057367
-0.291609
0.293509
0.0077794
-0.00951782
-0.431795
0.433534
0.0112884
-0.0129091
-0.537867
0.539487
0.0148181
-0.0167654
-0.646691
0.648638
0.0191286
-0.0214179
-0.774027
0.776316
0.0239902
-0.026332
-0.925825
0.928167
0.0288093
-0.0309023
-1.10582
1.10791
0.0328934
-0.034308
-1.3187
1.32011
0.0352492
-0.0353795
-1.57017
1.5703
0.0347201
-0.0333032
-1.55758
1.55616
0.0315762
-0.0293831
-1.28981
1.28762
0.0272347
-0.0248242
-1.07002
1.06761
0.0226427
-0.0203274
-0.888739
0.886424
0.0183061
-0.0161999
-0.738996
0.73689
0.0143608
-0.0124158
-0.614449
0.612504
0.0106714
-0.00875517
-0.503428
0.501512
0.00698325
-0.00500041
-0.372414
0.370431
0.00326397
-0.00160599
-0.199111
0.197453
0.000518647
-0.0340064
0.0334877
-0.0441978
0.0450441
-0.000846324
0.00506848
-0.00756212
-0.295739
0.298233
0.0102264
-0.0124712
-0.435722
0.437967
0.014737
-0.0168264
-0.541788
0.543877
0.0193127
-0.0218548
-0.65098
0.653522
0.0249025
-0.0278397
-0.778625
0.781562
0.0311199
-0.03406
-0.930465
0.933405
0.0371189
-0.0396539
-1.10998
1.11252
0.0420112
-0.043629
-1.32149
1.32311
0.0446113
-0.0445775
-1.57027
1.57024
0.043573
-0.0416505
-1.55447
1.55254
0.0393944
-0.0365858
-1.2851
1.28229
0.0338647
-0.0308344
-1.06483
1.0618
0.0281078
-0.0252308
-0.883664
0.880787
0.0227354
-0.0201549
-0.734336
0.731756
0.0179134
-0.0155454
-0.610308
0.60794
0.0134038
-0.0110138
-0.499623
0.497233
0.00877344
-0.00629452
-0.368535
0.366056
0.00411976
-0.00201523
-0.195764
0.19366
0.000647228
-0.0329954
0.0323481
-0.0460219
0.0471986
-0.00117669
0.00690057
-0.0102376
-0.301115
0.304452
0.013735
-0.0166281
-0.440825
0.443718
0.0195156
-0.0222008
-0.546893
0.549578
0.0254206
-0.0287114
-0.656505
0.659796
0.0326278
-0.0363416
-0.784487
0.788201
0.0404189
-0.0440259
-0.936301
0.939908
0.0477345
-0.0507667
-1.11504
1.11807
0.0535261
-0.0553395
-1.32465
1.32646
0.0563097
-0.0560266
-1.56999
1.5697
0.0545667
-0.0520072
-1.55027
1.54771
0.0490976
-0.0455338
-1.27909
1.27553
0.0421102
-0.0383148
-1.05833
1.05453
0.0349081
-0.0313197
-0.87737
0.873781
0.0282155
-0.0250214
-0.728579
0.725385
0.0222628
-0.0193635
-0.605185
0.602286
0.0167369
-0.0137855
-0.494881
0.491929
0.0109876
-0.00787599
-0.363685
0.360573
0.00514906
-0.00252321
-0.191572
0.188947
0.000808534
-0.0317469
0.0309384
-0.0484921
0.0501749
-0.00168282
0.00966916
-0.014208
-0.308184
0.312723
0.0188207
-0.0225643
-0.447477
0.451221
0.026279
-0.0297762
-0.553523
0.55702
0.0339943
-0.0382604
-0.663609
0.667875
0.0432346
-0.0478581
-0.79195
0.796573
0.0528549
-0.0572152
-0.943527
0.947887
0.0616289
-0.0651518
-1.12107
1.12459
0.0682411
-0.0701405
-1.32811
1.33001
0.0709389
-0.0702357
-1.56909
1.56838
0.0681434
-0.064768
-1.54469
1.54132
0.0610532
-0.0565756
-1.27149
1.26701
0.0523109
-0.0476022
-1.05022
1.04551
0.0433811
-0.0389331
-0.869568
0.86512
0.0350849
-0.0311318
-0.721456
0.717503
0.0277299
-0.0241735
-0.59883
0.595274
0.0209556
-0.0173316
-0.488945
0.485321
0.0138592
-0.00991272
-0.35763
0.353684
0.00646283
-0.00315486
-0.186357
0.183049
0.00100439
-0.0302041
0.0291997
-0.0519474
0.0544414
-0.00249404
0.0139299
-0.020137
-0.31767
0.323877
0.0261755
-0.0310045
-0.456263
0.461092
0.0358189
-0.0404187
-0.562195
0.566794
0.0459742
-0.0514912
-0.672735
0.678252
0.0577821
-0.0635022
-0.801292
0.807012
0.0695578
-0.0747234
-0.952272
0.957437
0.0798024
-0.0837062
-1.12802
1.13192
0.086944
-0.0887235
-1.33166
1.33344
0.089092
-0.087711
-1.56721
1.56583
0.0847403
-0.0803181
-1.53735
1.53293
0.075616
-0.0700493
-1.26195
1.25638
0.0647988
-0.0590293
-1.0402
1.03443
0.0538656
-0.0484206
-0.859949
0.854504
0.0437042
-0.0388543
-0.712666
0.707816
0.0346831
-0.0303313
-0.59096
0.586608
0.0263881
-0.0219185
-0.481535
0.477066
0.0175907
-0.0126223
-0.349981
0.345013
0.00819566
-0.0039567
-0.179866
0.175627
0.00124389
-0.0283038
0.0270599
-0.0569721
0.0609517
-0.00397965
0.0211324
-0.0298259
-0.330717
0.33941
0.0378415
-0.0441079
-0.46802
0.474286
0.0504078
-0.0565009
-0.573577
0.57967
0.063769
-0.0707694
-0.684388
0.691388
0.0784819
-0.0852756
-0.812781
0.819575
0.0922519
-0.0980062
-0.962511
0.968265
0.103444
-0.107414
-1.13557
1.13954
0.110433
-0.111742
-1.33477
1.33608
0.111294
-0.10889
-1.5638
1.56139
0.104737
-0.0990026
-1.52777
1.52204
0.0931199
-0.0862899
-1.25013
1.2433
0.0799186
-0.0729567
-1.02796
1.021
0.0667401
-0.0601815
-0.848227
0.841669
0.054489
-0.0486198
-0.701908
0.696039
0.0435692
-0.0383054
-0.581241
0.575977
0.0335137
-0.0279949
-0.472265
0.466746
0.0225623
-0.0162223
-0.34033
0.33399
0.010517
-0.00504407
-0.171665
0.166192
0.00156366
-0.0259582
0.0243945
-0.0647202
0.0719819
-0.00726171
0.0349506
-0.0476658
-0.349522
0.362238
0.0584247
-0.0662316
-0.483996
0.491803
0.0742052
-0.0820491
-0.588387
0.596231
0.091154
-0.0994853
-0.698853
0.707184
0.108268
-0.115698
-0.826239
0.833669
0.123029
-0.128802
-0.973686
0.97946
0.133951
-0.137374
-1.14295
1.14638
0.139528
-0.139792
-1.33663
1.3369
0.137974
-0.134092
-1.55807
1.55419
0.1284
-0.121087
-1.51541
1.50809
0.113843
-0.105617
-1.2357
1.22747
0.0980354
-0.089815
-1.01329
1.00507
0.0824973
-0.0747821
-0.834211
0.826496
0.0680704
-0.061127
-0.688957
0.682014
0.0551349
-0.0488814
-0.569359
0.563105
0.0431713
-0.0364821
-0.460621
0.453931
0.0296281
-0.0214275
-0.327916
0.319716
0.0138535
-0.00650347
-0.161189
0.153839
0.00192118
-0.0230527
0.0211315
-0.0789461
0.0822885
-0.00334235
0.023984
-0.0347072
-0.377833
0.388557
0.0444416
-0.0522912
-0.504959
0.512808
0.0613053
-0.0709256
-0.606365
0.615985
0.0815802
-0.0911336
-0.715262
0.724815
0.101788
-0.111222
-0.840392
0.849826
0.12102
-0.129417
-0.984356
0.992754
0.137747
-0.144393
-1.14879
1.15543
0.150276
-0.154087
-1.33602
1.33983
0.156052
-0.155306
-1.54909
1.54834
0.151715
-0.145674
-1.4997
1.49366
0.138592
-0.129606
-1.2184
1.20941
0.120816
-0.110274
-0.996096
0.985554
0.100607
-0.0899885
-0.817893
0.807274
0.0805064
-0.0704594
-0.673825
0.663778
0.061365
-0.0519824
-0.55521
0.545827
0.0437112
-0.0339449
-0.446082
0.436315
0.0246806
-0.0152431
-0.311541
0.302103
0.00812021
-0.00288768
-0.147229
0.141997
0.000472599
-0.0194872
0.0190146
-0.089489
0.0862116
0.00327733
0.000852777
-0.00711425
-0.402093
0.408354
0.014994
-0.0216669
-0.525332
0.532005
0.030242
-0.0386306
-0.625996
0.634384
0.0482439
-0.0570382
-0.734347
0.743142
0.0664305
-0.0749577
-0.858787
0.867315
0.0838313
-0.0911682
-1.00087
1.00821
0.0986776
-0.104373
-1.16198
1.16768
0.109394
-0.112387
-1.34348
1.34648
0.113333
-0.111873
-1.54692
1.54546
0.107729
-0.101314
-1.48694
1.48052
0.0938806
-0.0847395
-1.20004
1.1909
0.0759516
-0.0659133
-0.97481
0.964772
0.0565258
-0.046125
-0.795864
0.785463
0.0368431
-0.0273353
-0.651767
0.642259
0.0192218
-0.0108805
-0.533757
0.525416
0.0038006
0.00280495
-0.424473
0.417867
-0.00697709
0.00862749
-0.291322
0.289672
-0.00773585
0.00490591
-0.135415
0.138245
-0.00201483
-0.0176335
0.0196483
-0.0886216
0.0850715
0.00355007
-0.00696594
0.00420766
-0.417791
0.42055
0.000727811
-0.00623435
-0.542154
0.547661
0.0133301
-0.020523
-0.643203
0.650396
0.0287196
-0.0362608
-0.751472
0.759013
0.0445283
-0.0518885
-0.875201
0.882561
0.0593473
-0.0658894
-1.0154
1.02194
0.0724361
-0.077542
-1.17302
1.17813
0.0816989
-0.0840324
-1.34898
1.35131
0.0847536
-0.0831283
-1.54356
1.54194
0.0790813
-0.0730767
-1.47385
1.46785
0.0663276
-0.0583481
-1.18205
1.17407
0.0504511
-0.0417883
-0.954857
0.946194
0.0338067
-0.0251066
-0.775611
0.766911
0.0176474
-0.0100244
-0.632193
0.62457
0.00375934
0.00256899
-0.515263
0.508935
-0.0073722
0.0113608
-0.409232
0.405244
-0.0130715
0.0119363
-0.283972
0.285107
-0.00887317
0.00498742
-0.137765
0.141651
-0.0018353
-0.0200068
0.0218421
-0.0860697
0.0826991
0.00337064
-0.00946488
0.00870106
-0.427545
0.428309
-0.00552823
0.00124915
-0.555487
0.559766
0.0048333
-0.0108205
-0.657462
0.663449
0.0177898
-0.0242197
-0.766308
0.772737
0.0312357
-0.0375233
-0.889512
0.8958
0.0442973
-0.0498942
-1.02813
1.03373
0.0557189
-0.0598809
-1.18293
1.1871
0.0636177
-0.0657546
-1.35359
1.35573
0.0663417
-0.0646875
-1.54019
1.53854
0.0612675
-0.0561973
-1.46176
1.45669
0.0504767
-0.0434786
-1.16641
1.15941
0.0369568
-0.0299259
-0.937882
0.930851
0.0233959
-0.0166574
-0.758856
0.752118
0.0106067
-0.00470474
-0.616621
0.610719
-4.56861e-05
0.00435585
-0.501431
0.497121
-0.00731641
0.00952859
-0.398927
0.396715
-0.0101796
0.00842576
-0.281153
0.282907
-0.00603295
0.00327046
-0.141549
0.144312
-0.00120155
-0.0219861
0.0231876
-0.083596
0.0808148
0.00278119
-0.00955713
0.0100274
-0.433766
0.433296
-0.00754706
0.00418178
-0.566425
0.56979
0.000719513
-0.00607301
-0.669475
0.674828
0.0119137
-0.0175561
-0.778792
0.784435
0.023626
-0.0291002
-0.901772
0.907246
0.0349509
-0.0399935
-1.03928
1.04432
0.0450302
-0.0490044
-1.19124
1.19521
0.0524102
-0.0544072
-1.35767
1.35967
0.0550633
-0.0537126
-1.53697
1.53562
0.0508295
-0.0463612
-1.45135
1.44688
0.0415149
-0.0357596
-1.15284
1.14708
0.0303455
-0.0244303
-0.924048
0.918133
0.0191805
-0.0137023
-0.745626
0.740148
0.0090062
-0.00435872
-0.604757
0.600109
0.000737446
0.00246485
-0.491458
0.488256
-0.00473566
0.00621075
-0.392041
0.390566
-0.00644799
0.00540158
-0.279663
0.280709
-0.00390287
0.0020636
-0.143285
0.145125
-0.000840551
-0.0228741
0.0237146
-0.0816153
0.0793115
0.00230372
-0.00872076
0.00938868
-0.437736
0.437068
-0.00796007
0.0050947
-0.574965
0.57783
-0.000525398
-0.00403293
-0.679727
0.684285
0.00907498
-0.013997
-0.789569
0.794491
0.0194177
-0.0243499
-0.912488
0.91742
0.0297708
-0.0342738
-1.04919
1.0537
0.038922
-0.0426319
-1.19903
1.20274
0.0458127
-0.047727
-1.36155
1.36346
0.0484447
-0.0477119
-1.53436
1.53363
0.0452644
-0.0415914
-1.44228
1.43861
0.0374133
-0.0324465
-1.14148
1.13651
0.0280019
-0.022825
-0.912443
0.907266
0.0183055
-0.0137519
-0.734891
0.730337
0.00979337
-0.00586687
-0.595482
0.591556
0.00276129
0.000143964
-0.483838
0.480933
-0.00188895
0.00312519
-0.386673
0.385436
-0.00375071
0.00330629
-0.277503
0.277947
-0.00241962
0.00135524
-0.143305
0.14437
-0.000588238
-0.0231115
0.0236997
-0.0801937
0.0784234
0.0017703
-0.00732456
0.00819432
-0.440551
0.439681
-0.00697146
0.00465533
-0.582487
0.584803
-0.000531116
-0.00358811
-0.688651
0.69277
0.0083914
-0.0126614
-0.799243
0.803513
0.0174599
-0.0218755
-0.922412
0.926828
0.0270719
-0.03124
-1.05831
1.06248
0.0354885
-0.0391253
-1.20639
1.21003
0.0425979
-0.0445387
-1.36554
1.36748
0.0455442
-0.0450227
-1.53267
1.53215
0.0432499
-0.0398298
-1.43487
1.43145
0.0362782
-0.0319751
-1.13154
1.12723
0.0278753
-0.0233899
-0.902276
0.897791
0.0192807
-0.0150015
-0.725659
0.72138
0.0116392
-0.00798957
-0.587442
0.583793
0.00502329
-0.00246117
-0.47713
0.474568
0.000611899
0.00085011
-0.381955
0.380493
-0.00160105
0.00173186
-0.274928
0.274797
-0.00140252
0.000881821
-0.142186
0.142707
-0.000439168
-0.0229324
0.0233716
-0.0793995
0.0780136
0.00138592
-0.00590921
0.00685062
-0.44274
0.441799
-0.00564613
0.00333757
-0.588991
0.5913
0.000395451
-0.00407514
-0.696689
0.700369
0.00820792
-0.0123327
-0.807892
0.812017
0.0167872
-0.0213512
-0.931132
0.935696
0.0258859
-0.0299258
-1.0668
1.07084
0.0343693
-0.0378625
-1.21364
1.21714
0.0409967
-0.0434528
-1.36947
1.37192
0.0447731
-0.0446618
-1.53181
1.5317
0.0431632
-0.0403792
-1.42826
1.42547
0.0371728
-0.0331838
-1.12266
1.11867
0.0294156
-0.0251758
-0.893203
0.888963
0.0213069
-0.0173936
-0.717142
0.713229
0.0138952
-0.0104399
-0.579916
0.57646
0.00763344
-0.00486853
-0.471099
0.468334
0.00281553
-0.00134798
-0.377089
0.375621
0.000273914
0.000382715
-0.27167
0.271014
-0.000581999
0.000500768
-0.140335
0.140416
-0.000326425
-0.0225211
0.0228475
-0.0791929
0.0780177
0.00117518
-0.00446464
0.00514683
-0.444768
0.444085
-0.00412986
0.00179573
-0.594908
0.597242
0.00160828
-0.00512714
-0.704146
0.707665
0.00908773
-0.0128357
-0.816075
0.819823
0.0174093
-0.0212332
-0.939773
0.943597
0.0257559
-0.029649
-1.07508
1.07897
0.0340241
-0.0377583
-1.22067
1.2244
0.0412544
-0.0436075
-1.37426
1.37661
0.0453715
-0.0457273
-1.53164
1.532
0.0448687
-0.0423372
-1.42259
1.42006
0.0394517
-0.0356868
-1.11472
1.11095
0.0320984
-0.0279163
-0.884464
0.880282
0.0242143
-0.0202227
-0.709015
0.705023
0.0167429
-0.013197
-0.572691
0.569146
0.0101991
-0.00750196
-0.464879
0.462182
0.00521281
-0.00342724
-0.372041
0.370255
0.00201816
-0.000970427
-0.267812
0.266764
0.00030638
0.000170353
-0.137842
0.137365
-0.000222484
-0.0218843
0.0221068
-0.0792434
0.0783976
0.000845815
-0.00322186
0.00339363
-0.446967
0.446795
-0.00252001
0.000240179
-0.600144
0.602424
0.002831
-0.00619709
-0.711071
0.714438
0.00997521
-0.0138356
-0.823545
0.827405
0.0178211
-0.0217952
-0.947667
0.951641
0.0262864
-0.0299962
-1.08331
1.08702
0.0344892
-0.0382223
-1.228
1.23173
0.0418404
-0.044778
-1.37942
1.38236
0.047108
-0.0478055
-1.5325
1.5332
0.0471966
-0.0452866
-1.41773
1.41582
0.0427974
-0.0391849
-1.107
1.10338
0.0356107
-0.0316498
-0.875938
0.871977
0.0275982
-0.0236763
-0.700688
0.696766
0.0201042
-0.016356
-0.565448
0.5617
0.0133408
-0.0102977
-0.458468
0.455425
0.00784294
-0.00553712
-0.366803
0.364497
0.0038925
-0.0024161
-0.263396
0.261919
0.0011532
-0.000200309
-0.134736
0.133783
-0.000128723
-0.0210279
0.0211566
-0.0796889
0.0789968
0.000692125
-0.00221277
0.0023512
-0.449413
0.449275
-0.000967677
-0.00108492
-0.605338
0.607391
0.0042088
-0.00740261
-0.717469
0.720663
0.0110093
-0.0144799
-0.831031
0.834502
0.0185778
-0.022249
-0.955665
0.959336
0.0266907
-0.0308208
-1.0912
1.09533
0.0349837
-0.0390593
-1.23555
1.23962
0.0431247
-0.0462042
-1.38526
1.38834
0.0489608
-0.0504775
-1.5342
1.53572
0.0503443
-0.0490347
-1.41384
1.41253
0.0466732
-0.0433416
-1.09973
1.0964
0.0399646
-0.0359044
-0.867521
0.863461
0.0319401
-0.0278099
-0.692257
0.688126
0.0240724
-0.0200543
-0.557621
0.553603
0.0167075
-0.0134536
-0.451703
0.448449
0.0105533
-0.00789479
-0.360889
0.358231
0.00579779
-0.00383073
-0.258241
0.256274
0.00214559
-0.000683779
-0.130995
0.129534
2.52316e-05
-0.0200008
0.0199756
-0.0803836
0.0798421
0.000541587
-0.00118676
0.00108822
-0.452028
0.452126
6.23462e-05
-0.0023764
-0.610062
0.612376
0.00535991
-0.00836988
-0.72357
0.72658
0.0120319
-0.0153449
-0.838009
0.841322
0.0192841
-0.0230618
-0.963502
0.96728
0.0274001
-0.0314915
-1.09936
1.10345
0.0358692
-0.0399834
-1.24366
1.24777
0.0442635
-0.0481139
-1.39175
1.3956
0.0513692
-0.0532505
-1.53728
1.53916
0.0538637
-0.052902
-1.41115
1.41019
0.051037
-0.0481024
-1.09295
1.09002
0.0446532
-0.0406374
-0.858974
0.854958
0.0366471
-0.0322366
-0.683509
0.679099
0.0283579
-0.0239933
-0.549502
0.545137
0.0203913
-0.016646
-0.444472
0.440727
0.0135254
-0.0104857
-0.35434
0.351301
0.00781843
-0.00533202