/*--------------------------------*- C++ -*----------------------------------*\
  =========                 |
  \\      /  F ield         | OpenFOAM: The Open Source CFD Toolbox
   \\    /   O peration     | Website:  https://openfoam.org
    \\  /    A nd           | Version:  9
     \\/     M anipulation  |
\*---------------------------------------------------------------------------*/
FoamFile
{
    format      ascii;
    class       volScalarField;
    location    "24";
    object      p;
}
// * * * * * * * * * * * * * * * * * * * * * * * * * * * * * * * * * * * * * //

dimensions      [0 2 -2 0 0 0 0];

internalField   nonuniform List<scalar> 
8800
(
0.425099
0.377312
0.338621
0.309623
0.288751
0.273906
0.263286
0.25577
0.250892
0.24874
0.249869
0.253924
0.260454
0.269678
0.282391
0.300078
0.324822
0.358739
0.401267
0.459966
0.256353
0.264032
0.271503
0.274811
0.273305
0.268222
0.261723
0.255623
0.250854
0.247928
0.247522
0.249881
0.254235
0.260071
0.266755
0.272969
0.276564
0.275801
0.270346
0.261637
0.234771
0.240933
0.245062
0.248008
0.250055
0.250651
0.249527
0.247387
0.245302
0.244279
0.245089
0.247321
0.249987
0.252055
0.252574
0.251307
0.24891
0.245477
0.240899
0.237132
0.228984
0.231637
0.2344
0.236814
0.238455
0.239614
0.240338
0.240416
0.24005
0.239875
0.240457
0.241451
0.242134
0.242065
0.241344
0.240162
0.238272
0.23564
0.233201
0.231696
0.223643
0.225071
0.226872
0.22893
0.230735
0.232086
0.233063
0.233818
0.234351
0.234773
0.235225
0.235514
0.235426
0.234975
0.234133
0.232758
0.230954
0.229017
0.227663
0.226834
0.218637
0.21956
0.220835
0.222446
0.224119
0.225674
0.226965
0.227998
0.228878
0.229615
0.230064
0.230133
0.229852
0.229195
0.228116
0.226741
0.225264
0.223884
0.223006
0.222461
0.213821
0.214488
0.215506
0.216889
0.218376
0.2199
0.221384
0.222703
0.223812
0.224721
0.225263
0.225324
0.224924
0.224107
0.223021
0.221826
0.220597
0.219506
0.218854
0.218463
0.209221
0.209729
0.210578
0.211819
0.2132
0.214656
0.216156
0.217637
0.218989
0.220107
0.22077
0.220837
0.220402
0.219637
0.21869
0.217653
0.216597
0.215703
0.215196
0.214902
0.204769
0.205158
0.205898
0.207057
0.208403
0.209822
0.211305
0.212838
0.214348
0.215689
0.216516
0.216693
0.216389
0.215785
0.214996
0.214082
0.213143
0.212381
0.21198
0.211758
0.200479
0.200775
0.201424
0.202519
0.203829
0.205248
0.20676
0.208336
0.209946
0.211486
0.212554
0.212972
0.2129
0.212478
0.211824
0.211049
0.210233
0.209592
0.20928
0.209114
0.196318
0.196535
0.197129
0.198225
0.199561
0.201019
0.202624
0.204353
0.206157
0.207934
0.209319
0.210019
0.210145
0.20987
0.209353
0.208684
0.207934
0.207371
0.207131
0.207013
0.19237
0.192511
0.193033
0.194065
0.195348
0.19676
0.19833
0.200105
0.202097
0.204215
0.205967
0.207018
0.207497
0.207581
0.207354
0.206899
0.206327
0.20589
0.205728
0.205656
0.18866
0.188745
0.189179
0.190104
0.191313
0.192734
0.194399
0.196347
0.198575
0.201056
0.203302
0.204837
0.20569
0.206053
0.206106
0.20591
0.205582
0.205324
0.205242
0.205198
0.184928
0.184975
0.185317
0.186109
0.187226
0.188612
0.190327
0.192447
0.195034
0.198046
0.20088
0.202927
0.204266
0.205064
0.205467
0.205621
0.205603
0.205564
0.205556
0.20552
0.1807
0.180746
0.181029
0.181723
0.182792
0.18421
0.186048
0.188413
0.191402
0.195032
0.198612
0.201373
0.203288
0.204554
0.205405
0.205916
0.206207
0.206364
0.206406
0.206365
0.175666
0.175721
0.176017
0.176712
0.177824
0.179377
0.181479
0.184281
0.187905
0.192369
0.196846
0.200366
0.202887
0.204677
0.20591
0.206755
0.20731
0.2076
0.207667
0.207618
0.169541
0.169597
0.169961
0.170736
0.171988
0.173791
0.176287
0.179656
0.184067
0.189584
0.195183
0.199654
0.20294
0.205275
0.206933
0.208121
0.208909
0.209295
0.209384
0.20933
0.162141
0.162192
0.162635
0.163602
0.165147
0.167369
0.170452
0.174637
0.180117
0.186961
0.193935
0.19952
0.203579
0.206536
0.208687
0.210224
0.211187
0.211647
0.21177
0.211714
0.153328
0.153372
0.153905
0.155136
0.157111
0.159919
0.163796
0.169019
0.175845
0.184351
0.193001
0.199932
0.205038
0.208734
0.2114
0.21326
0.214419
0.214978
0.215143
0.215082
0.142863
0.142897
0.143547
0.14511
0.147613
0.15121
0.156125
0.162708
0.171239
0.181802
0.192496
0.201068
0.207381
0.211951
0.215249
0.217469
0.218873
0.219572
0.219787
0.219719
0.130326
0.130364
0.13118
0.133121
0.136365
0.140919
0.147179
0.155502
0.166201
0.179324
0.192498
0.203008
0.210755
0.216376
0.220388
0.223134
0.224854
0.225731
0.225992
0.225907
0.11493
0.114984
0.116026
0.118499
0.122655
0.12857
0.136593
0.147208
0.160686
0.17697
0.193115
0.205914
0.215346
0.222186
0.227061
0.230424
0.232558
0.233644
0.233953
0.233845
0.0954921
0.0955752
0.0969928
0.100336
0.105791
0.113545
0.124037
0.137702
0.154714
0.174859
0.194514
0.20996
0.221313
0.229557
0.235456
0.239557
0.242184
0.24351
0.24387
0.243734
0.0702072
0.0703596
0.0724393
0.0771776
0.0847465
0.0952572
0.109218
0.12694
0.148404
0.173175
0.196873
0.215306
0.228824
0.238669
0.245765
0.25075
0.253959
0.255556
0.255966
0.255794
0.0360259
0.0363524
0.0397659
0.0471448
0.0582915
0.0731159
0.0920321
0.115094
0.142025
0.172171
0.200384
0.222088
0.23798
0.249616
0.258097
0.264136
0.268044
0.269952
0.270403
0.270182
-0.0128937
-0.0116022
-0.00468679
0.00817408
0.0255657
0.0470695
0.0728373
0.102645
0.136016
0.172158
0.205219
0.230373
0.24878
0.262364
0.272418
0.279721
0.284502
0.286794
0.287275
0.286985
-0.085731
-0.0776176
-0.061629
-0.0388593
-0.0120226
0.0184393
0.0525927
0.0901979
0.130755
0.173482
0.211863
0.240887
0.26222
0.278175
0.290277
0.299351
0.305494
0.308571
0.309303
0.309126
-0.163818
-0.145323
-0.11958
-0.0864559
-0.0498975
-0.0103329
0.0323298
0.0779568
0.126163
0.176278
0.22108
0.255106
0.280391
0.299619
0.314547
0.32615
0.334228
0.338597
0.340004
0.340017
-0.227391
-0.206131
-0.172448
-0.13086
-0.0857362
-0.037685
0.0131426
0.0665427
0.122132
0.179291
0.230067
0.268583
0.297307
0.319293
0.336437
0.349691
0.359397
0.364681
0.36577
0.365927
-0.279139
-0.255939
-0.217227
-0.169625
-0.117805
-0.0627273
-0.00478367
0.0556667
0.118089
0.181766
0.237952
0.280358
0.31186
0.335878
0.354559
0.369044
0.379672
0.385346
0.386652
0.386917
-0.321872
-0.297702
-0.255441
-0.203168
-0.146007
-0.0851888
-0.0212137
0.0453908
0.113937
0.183512
0.244506
0.290195
0.323895
0.349432
0.369185
0.384488
0.395425
0.401526
0.403232
0.403521
-0.358348
-0.333604
-0.288705
-0.232744
-0.171184
-0.105524
-0.0363528
0.035664
0.109676
0.184574
0.249864
0.298382
0.333842
0.360462
0.380858
0.396516
0.40766
0.413945
0.415827
0.416086
-0.3905
-0.36541
-0.318481
-0.259425
-0.194171
-0.124327
-0.0506013
0.0262429
0.105217
0.185004
0.254262
0.30533
0.342295
0.369744
0.390516
0.406285
0.417439
0.423754
0.42576
0.425989
-0.41977
-0.394365
-0.345779
-0.284096
-0.215665
-0.142165
-0.064377
0.0168453
0.100402
0.18479
0.25783
0.31137
0.349754
0.377932
0.399029
0.414861
0.426015
0.432334
0.434434
0.434636
-0.447015
-0.421327
-0.371311
-0.307365
-0.236145
-0.159411
-0.0779867
0.00722945
0.095061
0.183859
0.260627
0.316615
0.356457
0.385435
0.406912
0.422882
0.434031
0.440227
0.442393
0.442656
-0.47294
-0.446907
-0.395534
-0.329678
-0.255956
-0.17635
-0.0916545
-0.00277874
0.0890582
0.182105
0.262611
0.321199
0.362668
0.392593
0.414551
0.430719
0.44191
0.44801
0.45012
0.45038
-0.497834
-0.471434
-0.418958
-0.351287
-0.275353
-0.193175
-0.105522
-0.0132946
0.0822917
0.179476
0.263834
0.325253
0.368549
0.399589
0.422186
0.438672
0.449959
0.456001
0.457974
0.458166
-0.522033
-0.495175
-0.441716
-0.372385
-0.294477
-0.209995
-0.119675
-0.0243831
0.0747224
0.175951
0.264257
0.328712
0.37411
0.406498
0.429907
0.446834
0.458269
0.464264
0.466072
0.466173
-0.545602
-0.518285
-0.46391
-0.39308
-0.313411
-0.226871
-0.134149
-0.0360581
0.0663257
0.171445
0.263749
0.331514
0.37933
0.413332
0.43774
0.45522
0.466837
0.472763
0.474432
0.474404
-0.568618
-0.540838
-0.485591
-0.413421
-0.332176
-0.243801
-0.148936
-0.0483272
0.0570631
0.165874
0.262222
0.333565
0.384137
0.420058
0.44567
0.463808
0.475615
0.481414
0.482911
0.482771
-0.59117
-0.562872
-0.506758
-0.433402
-0.350763
-0.260758
-0.164003
-0.0611606
0.0469435
0.159225
0.259578
0.334702
0.38841
0.42662
0.453683
0.47257
0.484543
0.49012
0.491391
0.491161
-0.613262
-0.584382
-0.527442
-0.452996
-0.369117
-0.277699
-0.179291
-0.0744956
0.0360272
0.151485
0.255712
0.334763
0.391962
0.432924
0.461779
0.481501
0.493521
0.498754
0.499751
0.499441
-0.634729
-0.605308
-0.547589
-0.472171
-0.387197
-0.294543
-0.19472
-0.088235
0.0243876
0.142679
0.250548
0.333566
0.394569
0.438822
0.469996
0.490722
0.502544
0.507146
0.507786
0.507409
-0.655523
-0.625594
-0.567155
-0.490862
-0.404935
-0.311222
-0.210191
-0.102292
0.0121109
0.132855
0.244047
0.330937
0.395949
0.444051
0.478339
0.500562
0.511879
0.515229
0.515284
0.51488
-0.675719
-0.645204
-0.586108
-0.509028
-0.422263
-0.327652
-0.225614
-0.116558
-0.000694858
0.122103
0.236192
0.326742
0.395784
0.448172
0.486614
0.511523
0.522493
0.523503
0.522127
0.521794
-0.695139
-0.66412
-0.604392
-0.526605
-0.439122
-0.34375
-0.240894
-0.130915
-0.0138975
0.110544
0.227024
0.320875
0.393773
0.450536
0.494139
0.523749
0.536263
0.534678
0.52982
0.528437
-0.713872
-0.682333
-0.622029
-0.543618
-0.455545
-0.359563
-0.256085
-0.145423
-0.0275669
0.0981071
0.216425
0.313087
0.389606
0.450317
0.499517
0.536136
0.554246
0.554799
0.544479
0.525526
-0.731855
-0.699844
-0.63914
-0.560254
-0.471819
-0.375418
-0.2716
-0.160566
-0.0422521
0.0841291
0.203693
0.302495
0.382526
0.446289
0.499737
0.543996
0.568293
0.563883
0.549149
0.527639
-0.748928
-0.716807
-0.65555
-0.576265
-0.487654
-0.390974
-0.287214
-0.176013
-0.0576225
0.0689251
0.189025
0.288863
0.372085
0.437786
0.489671
0.535113
0.560102
0.546965
0.475515
0.43889
-0.764462
-0.734325
-0.670913
-0.591075
-0.50235
-0.405759
-0.302637
-0.191541
-0.0734566
0.0526471
0.172448
0.272082
0.357421
0.425178
0.467209
0.499412
0.509073
0.461731
0.387813
0.341003
-0.819299
-0.749428
-0.684926
-0.605986
-0.517314
-0.421139
-0.31793
-0.207406
-0.0900827
0.0349117
0.153493
0.251839
0.335741
0.410212
0.414447
0.429355
0.398712
0.334483
0.254674
0.209524
-0.780142
-0.76457
-0.705169
-0.627173
-0.538939
-0.443167
-0.341063
-0.231566
-0.115813
0.00679791
0.121938
0.216715
0.291898
0.363959
0.364961
0.256021
0.147845
0.073919
-0.00270879
0.0357568
-0.810118
-0.781508
-0.721545
-0.643736
-0.555795
-0.460398
-0.358219
-0.24957
-0.135205
-0.0149054
0.0966819
0.186854
0.254161
0.292525
0.245707
0.0952941
-0.0413868
-0.13801
-0.243441
-0.18343
-0.833086
-0.801397
-0.740481
-0.662317
-0.57444
-0.479227
-0.377298
-0.269681
-0.157002
-0.0395257
0.0678129
0.152061
0.209431
0.217451
0.108453
-0.0800223
-0.247932
-0.378424
-0.524088
-0.476126
-0.855323
-0.822122
-0.760167
-0.681232
-0.593232
-0.498193
-0.396889
-0.290418
-0.179597
-0.065259
0.0371071
0.114784
0.158074
0.129845
-0.0367746
-0.254675
-0.468428
-0.66304
-0.878096
-0.873687
-0.876658
-0.843246
-0.780505
-0.700905
-0.612752
-0.517944
-0.417364
-0.312131
-0.203382
-0.092489
0.0044044
0.0748226
0.100427
0.0375934
-0.176001
-0.412809
-0.661384
-0.887325
-1.16905
-1.51444
-0.898132
-0.864883
-0.801733
-0.721705
-0.633392
-0.538768
-0.438833
-0.334845
-0.228235
-0.120951
-0.029693
0.032602
0.0405739
-0.073089
-0.297376
-0.535412
-0.775349
-0.981074
-1.06108
-1.17989
-0.9205
-0.887446
-0.824133
-0.743936
-0.65558
-0.56122
-0.46201
-0.359417
-0.255232
-0.152
-0.0668136
-0.0139213
-0.0299669
-0.188983
-0.404266
-0.622827
-0.815274
-0.928893
-0.953262
-0.97548
-0.9441
-0.911225
-0.847836
-0.767636
-0.679393
-0.585441
-0.487164
-0.386234
-0.284857
-0.186264
-0.107544
-0.0660238
-0.106781
-0.294945
-0.50125
-0.694291
-0.842203
-0.897192
-0.912685
-0.915398
-0.969126
-0.936257
-0.872879
-0.792742
-0.704728
-0.611372
-0.514234
-0.415254
-0.317078
-0.223684
-0.152
-0.124366
-0.184908
-0.394984
-0.591458
-0.763808
-0.87271
-0.884761
-0.889376
-0.889837
-0.995523
-0.962542
-0.899238
-0.81919
-0.731531
-0.638921
-0.543129
-0.446382
-0.351772
-0.264082
-0.200163
-0.183982
-0.277274
-0.489396
-0.675781
-0.822909
-0.864912
-0.87695
-0.879493
-0.879054
-1.02299
-0.989866
-0.926744
-0.846838
-0.75964
-0.667937
-0.573696
-0.479452
-0.388763
-0.307198
-0.251516
-0.248109
-0.381386
-0.58162
-0.749197
-0.865511
-0.872547
-0.873967
-0.875561
-0.875436
-1.05094
-1.01793
-0.955013
-0.875407
-0.788789
-0.698153
-0.605648
-0.514152
-0.427687
-0.352628
-0.305023
-0.320684
-0.481663
-0.673709
-0.819558
-0.855618
-0.879133
-0.878534
-0.876682
-0.876324
-1.07897
-1.04622
-0.983562
-0.90446
-0.818554
-0.729132
-0.63855
-0.549979
-0.467997
-0.399661
-0.36009
-0.393612
-0.580843
-0.771787
-0.888975
-0.903885
-0.897299
-0.887866
-0.881821
-0.879624
-1.10617
-1.07406
-1.01188
-0.933356
-0.84833
-0.76027
-0.67177
-0.586227
-0.508827
-0.447218
-0.416357
-0.465371
-0.672179
-0.889062
-0.996762
-0.973375
-0.948483
-0.927721
-0.917356
-0.912281
-1.13138
-1.09983
-1.03917
-0.961284
-0.877317
-0.79076
-0.704426
-0.621956
-0.548963
-0.494016
-0.472154
-0.535181
-0.746848
-1.00061
-1.19331
-1.11047
-1.06107
-1.03028
-1.01579
-1.00733
-1.15329
-1.12298
-1.06371
-0.987243
-0.904522
-0.819584
-0.735383
-0.655946
-0.586893
-0.538489
-0.523491
-0.594964
-0.79846
-1.0044
-1.44355
-1.31476
-1.22571
-1.21393
-1.19605
-1.18536
-1.17034
-1.14185
-1.08467
-1.00985
-0.928745
-0.845542
-0.763399
-0.686576
-0.621047
-0.577848
-0.567611
-0.644342
-0.809751
-0.759318
-0.575477
-0.891573
-1.22712
-1.30394
-1.30206
-1.30175
-1.181
-1.155
-1.10057
-1.02783
-0.948586
-0.867248
-0.786967
-0.712055
-0.649348
-0.608466
-0.608437
-0.698463
-0.859705
-0.678435
-0.395156
-0.776459
-1.20215
-1.30438
-1.32189
-1.33796
-1.18348
-1.16096
-1.11004
-1.03992
-0.962733
-0.883241
-0.804524
-0.730591
-0.668606
-0.630301
-0.639469
-0.798192
-1.25818
-1.94757
-2.57383
-3.02739
-2.90556
-2.39072
-1.94988
-1.86653
-1.17694
-1.15825
-1.11179
-1.04507
-0.97017
-0.892396
-0.81455
-0.740506
-0.676312
-0.635729
-0.645153
-0.861532
-1.6101
-2.81437
-3.73293
-4.1057
-3.97384
-3.55994
-3.09565
-2.82763
-1.16003
-1.14505
-1.10492
-1.04271
-0.970373
-0.894042
-0.816235
-0.740251
-0.671314
-0.618261
-0.613511
-0.738247
-1.25345
-1.84727
-2.40506
-2.51083
-2.29283
-1.94731
-1.63685
-1.46242
-1.13389
-1.12318
-1.08974
-1.03318
-0.963593
-0.888398
-0.809809
-0.730039
-0.652434
-0.580281
-0.526339
-0.461184
-0.447201
-0.239053
0.0942094
0.465683
0.826321
1.06972
1.20606
1.25919
-1.10131
-1.09464
-1.06866
-1.01826
-0.951457
-0.876904
-0.796805
-0.712726
-0.623601
-0.531897
-0.426152
-0.316433
-0.00250346
0.596496
1.26449
1.87093
2.29934
2.53398
2.6281
2.65387
-1.0662
-1.0624
-1.04513
-1.00091
-0.936586
-0.86224
-0.78073
-0.692465
-0.59808
-0.491327
-0.381239
-0.259117
-0.0301095
0.557097
1.19221
1.74163
2.12912
2.34749
2.44568
2.47617
-1.03389
-1.03162
-1.02184
-0.98489
-0.92241
-0.846974
-0.764407
-0.675688
-0.579776
-0.472488
-0.370512
-0.271609
-0.146023
0.249908
0.728222
1.11506
1.39878
1.56676
1.64648
1.67206
-1.00509
-1.00528
-1.00117
-0.969702
-0.907012
-0.830078
-0.748403
-0.662585
-0.570674
-0.47026
-0.374667
-0.293898
-0.228166
0.0229043
0.363931
0.640885
0.846269
0.972127
1.03666
1.05639
-0.968207
-0.970732
-0.968889
-0.939823
-0.878297
-0.804139
-0.727707
-0.649045
-0.565359
-0.473497
-0.384482
-0.313824
-0.251667
-0.105019
0.116675
0.30547
0.445968
0.531852
0.572623
0.58125
-0.888396
-0.891007
-0.889158
-0.867306
-0.81884
-0.759714
-0.696894
-0.630765
-0.558451
-0.476934
-0.395696
-0.326861
-0.260916
-0.168031
-0.0288653
0.0879133
0.173042
0.225198
0.248707
0.254268
-0.777662
-0.778353
-0.776417
-0.764226
-0.737831
-0.700959
-0.657707
-0.607847
-0.549634
-0.480856
-0.410119
-0.348045
-0.284582
-0.228663
-0.147257
-0.0703539
-0.0130373
0.0218057
0.0375104
0.0382462
-0.682313
-0.682056
-0.68119
-0.676805
-0.666015
-0.64772
-0.621698
-0.5869
-0.541559
-0.483909
-0.42482
-0.37591
-0.334561
-0.300941
-0.25223
-0.196294
-0.152383
-0.123927
-0.112069
-0.112171
-0.625875
-0.625316
-0.624875
-0.62456
-0.620719
-0.611737
-0.596142
-0.571639
-0.535746
-0.487695
-0.439846
-0.411095
-0.402157
-0.388115
-0.341344
-0.291322
-0.253112
-0.231176
-0.222229
-0.223395
-0.603927
-0.603304
-0.602722
-0.602475
-0.600563
-0.59494
-0.584349
-0.565897
-0.535862
-0.49117
-0.446661
-0.427315
-0.443661
-0.447799
-0.400264
-0.353997
-0.323023
-0.30794
-0.30267
-0.303391
-0.607658
-0.606827
-0.605844
-0.605054
-0.603097
-0.598418
-0.589698
-0.574263
-0.54655
-0.500463
-0.447999
-0.416364
-0.419047
-0.418008
-0.390372
-0.362517
-0.344453
-0.335464
-0.331908
-0.332832
-0.632638
-0.631688
-0.630599
-0.629581
-0.627624
-0.623721
-0.616964
-0.60478
-0.579667
-0.530839
-0.463997
-0.400639
-0.371433
-0.36842
-0.357545
-0.344674
-0.336078
-0.329572
-0.328091
-0.328805
-0.675134
-0.674365
-0.673579
-0.673087
-0.672524
-0.671832
-0.670942
-0.668087
-0.655488
-0.616358
-0.536886
-0.434027
-0.371272
-0.361126
-0.354367
-0.336727
-0.31384
-0.297641
-0.291282
-0.293714
-0.729466
-0.729108
-0.729387
-0.730764
-0.734173
-0.74135
-0.754572
-0.775935
-0.80318
-0.811432
-0.729084
-0.577257
-0.476148
-0.442113
-0.409118
-0.355639
-0.306027
-0.270344
-0.264811
-0.268117
-0.786132
-0.786684
-0.788809
-0.793693
-0.804249
-0.825118
-0.863822
-0.933111
-1.04557
-1.15981
-1.07979
-0.849098
-0.683598
-0.614482
-0.52587
-0.424058
-0.338582
-0.294378
-0.290902
-0.293005
-0.830398
-0.832206
-0.836764
-0.8464
-0.866354
-0.905132
-0.978588
-1.11769
-1.35994
-1.63514
-1.57456
-1.22013
-0.969917
-0.839413
-0.693494
-0.53977
-0.422238
-0.372928
-0.377891
-0.384617
-0.844318
-0.847418
-0.854315
-0.868431
-0.897017
-0.951773
-1.05839
-1.26599
-1.63586
-2.07597
-2.07595
-1.59943
-1.25137
-1.07539
-0.895097
-0.743832
-0.645884
-0.616262
-0.613494
-0.618402
-0.813255
-0.816827
-0.824591
-0.840807
-0.873597
-0.936438
-1.05869
-1.2976
-1.72776
-2.24166
-2.30753
-1.81194
-1.45579
-1.27114
-1.11233
-1.02363
-0.969971
-0.945818
-0.933375
-0.931837
-0.732172
-0.735455
-0.74256
-0.757468
-0.788096
-0.847255
-0.961463
-1.18474
-1.58295
-2.02991
-2.07082
-1.71145
-1.45683
-1.32249
-1.26268
-1.2414
-1.21425
-1.18439
-1.16529
-1.15873
-0.611661
-0.613991
-0.619025
-0.63
-0.653185
-0.69841
-0.785882
-0.957255
-1.26591
-1.59441
-1.60437
-1.4158
-1.29019
-1.2113
-1.23115
-1.26632
-1.24312
-1.21593
-1.1977
-1.19027
-0.472124
-0.473185
-0.475601
-0.481592
-0.495228
-0.52264
-0.576278
-0.682451
-0.883054
-1.117
-1.15291
-1.07559
-0.990111
-0.966178
-1.03505
-1.0903
-1.07385
-1.05647
-1.04554
-1.04027
-0.335662
-0.335613
-0.335849
-0.337504
-0.342678
-0.354165
-0.377583
-0.425177
-0.521614
-0.663612
-0.697691
-0.6607
-0.606808
-0.64723
-0.755866
-0.802767
-0.802076
-0.797317
-0.794192
-0.791993
-0.218982
-0.218256
-0.217196
-0.216161
-0.215803
-0.216603
-0.219618
-0.227189
-0.244123
-0.279749
-0.295789
-0.269948
-0.307471
-0.399901
-0.487389
-0.520908
-0.530262
-0.534028
-0.536363
-0.536528
-0.130049
-0.129093
-0.127614
-0.125594
-0.122826
-0.118647
-0.112132
-0.101633
-0.0840296
-0.0527437
-0.031878
-0.060899
-0.1501
-0.23417
-0.286676
-0.311897
-0.321662
-0.327658
-0.331622
-0.332752
-0.0690146
-0.0681336
-0.0667987
-0.0649216
-0.0619308
-0.0568431
-0.0484166
-0.0347548
-0.0134034
0.0154208
0.0283142
-0.00520356
-0.0717422
-0.126954
-0.160531
-0.176612
-0.185119
-0.190183
-0.19361
-0.194746
-0.0313057
-0.0306352
-0.0296612
-0.0283843
-0.0261821
-0.0221358
-0.0152743
-0.00440041
0.01131
0.0290135
0.0319808
0.00696325
-0.0335737
-0.0667178
-0.0876324
-0.0984585
-0.103733
-0.106851
-0.109022
-0.10978
-0.0107909
-0.010347
-0.00975565
-0.00912908
-0.00791345
-0.00540075
-0.000966383
0.00596522
0.0153531
0.0243093
0.0227711
0.00638744
-0.0161803
-0.0347266
-0.046566
-0.0526584
-0.0554549
-0.0570738
-0.0582457
-0.0586699
-0.00176982
-0.00151516
-0.00124411
-0.00112618
-0.000708402
0.000463991
0.00270869
0.00621759
0.010749
0.0144698
0.0124018
0.00365482
-0.00715369
-0.0159003
-0.0214334
-0.0242069
-0.0253677
-0.0259808
-0.0264951
-0.0266942
0.000257716
0.000301012
0.000453877
0.000622615
0.000741059
0.000861804
0.00110473
0.00154058
0.00216977
0.00282656
0.00295317
0.00181883
-0.000126083
-0.00210882
-0.00355029
-0.00429545
-0.00433286
-0.00433031
-0.00443503
-0.00457191
-0.616085
-0.417329
-0.188003
0.00511873
0.161104
0.286183
0.391172
0.479757
0.519592
0.496954
-0.255841
-0.116008
0.0319631
0.160071
0.268697
0.359352
0.432923
0.485256
0.512109
0.52371
-0.0036238
0.0908859
0.190879
0.279687
0.356327
0.420586
0.471639
0.508906
0.535385
0.552836
0.176807
0.242369
0.31243
0.376394
0.431982
0.479087
0.517599
0.548077
0.572523
0.590485
0.314675
0.362327
0.413036
0.461281
0.503762
0.540683
0.572083
0.597981
0.619393
0.63703
0.426716
0.462421
0.503493
0.541892
0.576933
0.608156
0.635282
0.657915
0.676445
0.693701
0.524034
0.554366
0.590395
0.624257
0.655716
0.684147
0.708891
0.729344
0.745318
0.762373
0.615588
0.645818
0.681085
0.7142
0.744743
0.772133
0.795644
0.81461
0.828313
0.845362
0.712758
0.746508
0.783943
0.818212
0.848856
0.875556
0.897925
0.915514
0.92762
0.94505
0.828985
0.866951
0.90612
0.940845
0.970562
0.995625
1.01626
1.03235
1.04398
1.06208
0.974718
1.01352
1.04974
1.08066
1.10656
1.12885
1.14806
1.16371
1.17624
1.19427
1.14988
1.18186
1.20819
1.23074
1.25084
1.26968
1.28748
1.30403
1.31944
1.33753
1.33874
1.35608
1.37128
1.38761
1.40359
1.41818
1.43144
1.44541
1.463
1.48317
1.52084
1.53027
1.54185
1.5527
1.56202
1.57166
1.58252
1.59392
1.60531
1.62068
1.72799
1.73169
1.71677
1.70198
1.69576
1.70148
1.71997
1.75031
1.78251
1.80917
2.03434
1.89948
1.82288
1.78059
1.76319
1.76716
1.79458
1.851
1.95363
2.178
0.315696
0.313566
0.30908
0.300452
0.288224
0.276088
0.265846
0.257924
0.252256
0.248915
0.24843
0.251016
0.255984
0.263095
0.272397
0.283873
0.296476
0.307478
0.313575
0.316616
0.240153
0.245999
0.25234
0.256833
0.2593
0.258969
0.256219
0.252382
0.248819
0.246468
0.246182
0.248215
0.251734
0.255904
0.259617
0.261427
0.260437
0.256911
0.251713
0.245077
0.231751
0.234047
0.237455
0.240457
0.242538
0.244034
0.244777
0.244434
0.243355
0.24237
0.242389
0.243644
0.245296
0.24646
0.246526
0.245544
0.243919
0.241522
0.238218
0.235281
0.226266
0.227352
0.229194
0.231588
0.233625
0.23506
0.236074
0.236797
0.237136
0.237248
0.237567
0.238168
0.238576
0.238476
0.237922
0.236955
0.235386
0.233219
0.231072
0.229671
0.221108
0.221768
0.222894
0.224635
0.226454
0.228114
0.229418
0.230409
0.231224
0.231894
0.232424
0.232727
0.232687
0.232316
0.231565
0.230347
0.228774
0.227106
0.225704
0.224904
0.216206
0.21666
0.21747
0.218821
0.220366
0.221937
0.223441
0.224741
0.225816
0.226728
0.227407
0.227681
0.227538
0.226988
0.226035
0.224818
0.223495
0.222199
0.221178
0.220641
0.211495
0.211826
0.212467
0.213623
0.215017
0.216477
0.217981
0.219461
0.220805
0.22194
0.222768
0.223097
0.222888
0.222236
0.221299
0.220224
0.219101
0.218002
0.217192
0.216799
0.206977
0.207226
0.207751
0.208772
0.210076
0.211481
0.212945
0.21445
0.215931
0.217274
0.218288
0.218721
0.218571
0.218019
0.217224
0.216293
0.2153
0.214364
0.21371
0.213411
0.202605
0.202786
0.203225
0.204158
0.205407
0.20678
0.208225
0.209741
0.211319
0.212869
0.214108
0.214694
0.214696
0.214323
0.213702
0.21292
0.21205
0.211238
0.210702
0.210477
0.198385
0.198514
0.198884
0.19976
0.200996
0.202377
0.203886
0.205497
0.207154
0.20882
0.210297
0.211216
0.211514
0.211333
0.21083
0.210155
0.209397
0.208679
0.20824
0.208075
0.194311
0.194387
0.194699
0.195539
0.196776
0.198163
0.199667
0.20134
0.203206
0.205173
0.206982
0.208188
0.208705
0.208763
0.208505
0.208015
0.207376
0.206752
0.2064
0.206291
0.190499
0.190533
0.190784
0.191525
0.192662
0.19399
0.195491
0.1972
0.199147
0.201333
0.203537
0.205221
0.206201
0.206646
0.206698
0.206473
0.206079
0.205653
0.205423
0.205365
0.186823
0.186826
0.187022
0.187653
0.188694
0.189991
0.191534
0.193405
0.195644
0.198243
0.200958
0.203134
0.204516
0.205281
0.205642
0.205727
0.205617
0.205431
0.205343
0.205318
0.182897
0.182901
0.183055
0.183565
0.184479
0.185709
0.187258
0.189233
0.191713
0.194748
0.19809
0.200953
0.20295
0.204282
0.205067
0.205556
0.205794
0.205894
0.205943
0.205934
0.178301
0.178296
0.178457
0.178927
0.179813
0.181087
0.18278
0.185037
0.187962
0.191626
0.195768
0.199415
0.202038
0.203863
0.205129
0.205974
0.206523
0.20686
0.206999
0.206996
0.172755
0.172747
0.172935
0.173451
0.174392
0.175791
0.177727
0.18037
0.183881
0.188364
0.193507
0.198116
0.20151
0.203955
0.205683
0.206903
0.207761
0.20828
0.208473
0.208474
0.166011
0.165994
0.166213
0.166848
0.167962
0.16962
0.171964
0.175197
0.179513
0.185049
0.191436
0.197201
0.201502
0.204627
0.206805
0.208404
0.209564
0.210235
0.210479
0.210494
0.157912
0.157878
0.158136
0.15894
0.160353
0.16244
0.16537
0.169408
0.174783
0.181664
0.189598
0.196768
0.202114
0.205993
0.208817
0.210865
0.212242
0.213021
0.21332
0.213349
0.148302
0.148248
0.148563
0.149559
0.151374
0.154019
0.157741
0.162821
0.169545
0.17811
0.187953
0.196837
0.203471
0.208312
0.211797
0.214291
0.215946
0.216895
0.217284
0.217329
0.136858
0.136784
0.137181
0.138419
0.140721
0.144105
0.148842
0.155266
0.163719
0.174406
0.186587
0.197524
0.205706
0.211674
0.215964
0.218996
0.221014
0.222188
0.22268
0.222738
0.122977
0.122885
0.123414
0.124999
0.127867
0.132263
0.138312
0.146496
0.157175
0.170519
0.185555
0.198952
0.208942
0.216241
0.221491
0.225185
0.227662
0.229128
0.229737
0.229803
0.105672
0.105566
0.106323
0.108434
0.112133
0.117779
0.125661
0.136222
0.149803
0.166489
0.184981
0.201277
0.213376
0.22221
0.228566
0.233057
0.236099
0.237901
0.238631
0.238704
0.083496
0.0833888
0.0845219
0.0874282
0.0924406
0.0999928
0.110454
0.124247
0.141607
0.162431
0.185022
0.204657
0.219153
0.229738
0.237381
0.242817
0.246541
0.248745
0.249617
0.24969
0.0540788
0.0540143
0.055844
0.0601798
0.0673935
0.0780111
0.092297
0.110532
0.132733
0.158562
0.18589
0.20927
0.226428
0.238973
0.248089
0.254639
0.259165
0.261826
0.262851
0.26292
0.0132349
0.0133668
0.0167317
0.0240798
0.0354009
0.0510988
0.0710667
0.0952877
0.123523
0.155215
0.187827
0.215261
0.235276
0.249956
0.260732
0.268593
0.274098
0.277293
0.278459
0.27851
-0.0467168
-0.0453244
-0.0371847
-0.0234198
-0.00442091
0.0193789
0.0473333
0.0791837
0.114557
0.152794
0.191045
0.222689
0.24566
0.262573
0.27514
0.284462
0.291101
0.294947
0.296275
0.296307
-0.118505
-0.116252
-0.100819
-0.0768557
-0.0473351
-0.0140302
0.0227019
0.0627626
0.105849
0.1514
0.196338
0.233391
0.260479
0.280707
0.296011
0.307624
0.316095
0.320916
0.322313
0.32247
-0.192365
-0.18507
-0.162328
-0.128392
-0.0891342
-0.0466124
-0.00116815
0.0471031
0.0979542
0.150877
0.202619
0.245207
0.276477
0.300079
0.318287
0.332403
0.342792
0.348206
0.350437
0.350988
-0.251043
-0.241978
-0.214485
-0.173816
-0.127037
-0.0767501
-0.023559
0.0322828
0.0904366
0.150343
0.208416
0.255975
0.290841
0.317165
0.33746
0.353191
0.364836
0.371464
0.374697
0.375423
-0.298694
-0.289093
-0.258155
-0.212606
-0.160117
-0.103657
-0.0440088
0.0184346
0.083136
0.149408
0.213239
0.265161
0.302979
0.331375
0.35319
0.370107
0.382697
0.390327
0.393879
0.394672
-0.338494
-0.328716
-0.295544
-0.246263
-0.189156
-0.127633
-0.0625551
0.00557849
0.0760771
0.14806
0.217051
0.272774
0.313034
0.343013
0.365877
0.383499
0.396624
0.404819
0.408578
0.409415
-0.373045
-0.36322
-0.328392
-0.276065
-0.215197
-0.149413
-0.0796415
-0.00651637
0.0691505
0.146309
0.219991
0.279122
0.321467
0.352681
0.376235
0.394201
0.407516
0.415886
0.419677
0.420583
-0.403922
-0.394097
-0.358023
-0.303161
-0.239126
-0.169668
-0.0957838
-0.0182048
0.0621594
0.144095
0.222176
0.284488
0.328751
0.361045
0.385123
0.403281
0.416626
0.425103
0.428855
0.42977
-0.432324
-0.422475
-0.385361
-0.328337
-0.261604
-0.188934
-0.111402
-0.0297999
0.0548803
0.141303
0.223613
0.289063
0.335191
0.368525
0.393125
0.411512
0.424919
0.43342
0.437216
0.437946
-0.45902
-0.44912
-0.411079
-0.352227
-0.283071
-0.207556
-0.126781
-0.0415386
0.0471319
0.137812
0.224251
0.292851
0.340958
0.375454
0.40068
0.41935
0.432847
0.44134
0.445128
0.44576
-0.48448
-0.474533
-0.435649
-0.375202
-0.30386
-0.225819
-0.142132
-0.0535792
0.0387835
0.133506
0.224036
0.295943
0.346245
0.382085
0.408071
0.427137
0.440804
0.449294
0.453033
0.453646
-0.509132
-0.499032
-0.459336
-0.397459
-0.324187
-0.243888
-0.157579
-0.0660238
0.029755
0.128337
0.222977
0.298387
0.351088
0.388494
0.415433
0.435039
0.448969
0.457502
0.46112
0.461721
-0.533132
-0.52281
-0.482417
-0.419165
-0.344169
-0.261859
-0.173198
-0.0789175
0.0200171
0.122282
0.220997
0.300065
0.355465
0.394708
0.422817
0.443114
0.457387
0.465976
0.469465
0.470014
-0.556528
-0.546001
-0.504957
-0.440418
-0.363877
-0.279768
-0.189005
-0.0922678
0.00955314
0.115263
0.217971
0.300889
0.359314
0.400714
0.430223
0.451358
0.466035
0.474663
0.477999
0.478445
-0.579456
-0.568647
-0.526905
-0.461235
-0.383323
-0.297612
-0.204981
-0.10606
-0.00163983
0.107253
0.213844
0.300748
0.362502
0.406425
0.437623
0.459754
0.474878
0.483517
0.486645
0.486953
-0.601825
-0.590749
-0.548332
-0.481617
-0.402474
-0.31535
-0.221081
-0.120245
-0.0135207
0.0982756
0.208561
0.299493
0.364875
0.41173
0.444982
0.468293
0.483851
0.492377
0.495229
0.495395
-0.623655
-0.612306
-0.569211
-0.501543
-0.421296
-0.332937
-0.237243
-0.134741
-0.0260043
0.0883703
0.202073
0.296992
0.36622
0.416457
0.452257
0.477027
0.492965
0.501155
0.50359
0.503601
-0.644807
-0.633238
-0.589482
-0.520955
-0.439729
-0.350288
-0.253385
-0.149458
-0.0390039
0.0776031
0.194376
0.293125
0.366317
0.420355
0.459357
0.486113
0.502401
0.509827
0.511546
0.511374
-0.665364
-0.653496
-0.609116
-0.539816
-0.457729
-0.367354
-0.269411
-0.164309
-0.052423
0.0660742
0.185504
0.287797
0.364932
0.423072
0.466034
0.495742
0.51274
0.518744
0.519
0.518506
-0.685201
-0.673039
-0.628084
-0.558074
-0.475215
-0.38405
-0.285237
-0.17917
-0.0661398
0.0538745
0.17553
0.280956
0.361861
0.424159
0.471751
0.505852
0.525005
0.529458
0.526629
0.524711
-0.704341
-0.691928
-0.646336
-0.575675
-0.492146
-0.400308
-0.300778
-0.193955
-0.0800316
0.0411581
0.164568
0.272577
0.356963
0.423143
0.475547
0.515549
0.539663
0.5454
0.538893
0.528057
-0.722715
-0.710103
-0.663976
-0.592769
-0.508727
-0.416407
-0.316371
-0.209074
-0.0945667
0.0273873
0.152025
0.261999
0.349574
0.419335
0.475912
0.522761
0.554846
0.565917
0.560383