/*--------------------------------*- C++ -*----------------------------------*\
  =========                 |
  \\      /  F ield         | OpenFOAM: The Open Source CFD Toolbox
   \\    /   O peration     | Website:  https://openfoam.org
    \\  /    A nd           | Version:  9
     \\/     M anipulation  |
\*---------------------------------------------------------------------------*/
FoamFile
{
    format      ascii;
    class       volScalarField;
    location    "1";
    object      p;
}
// * * * * * * * * * * * * * * * * * * * * * * * * * * * * * * * * * * * * * //

dimensions      [0 2 -2 0 0 0 0];

internalField   nonuniform List<scalar> 
8800
(
1.76715
1.7226
1.69049
1.66656
1.64805
1.63329
1.62145
1.6122
1.60565
1.60242
1.60369
1.60889
1.61695
1.62756
1.64084
1.65737
1.67832
1.70591
1.74321
1.79922
1.58776
1.58879
1.58782
1.58471
1.579
1.57145
1.56324
1.55541
1.54884
1.54447
1.54355
1.54663
1.5524
1.55983
1.56804
1.57609
1.58287
1.58735
1.58928
1.58898
1.58953
1.59233
1.59336
1.59265
1.59015
1.58633
1.58163
1.57679
1.57271
1.5705
1.57145
1.57498
1.57973
1.58473
1.58915
1.59243
1.59423
1.59389
1.59232
1.59046
1.57389
1.57379
1.57352
1.57288
1.57169
1.56979
1.56719
1.56425
1.56159
1.56016
1.5609
1.56336
1.56646
1.56942
1.57176
1.57336
1.57427
1.57472
1.57487
1.57489
1.56039
1.56037
1.56018
1.55977
1.55904
1.55792
1.55639
1.55461
1.55294
1.55204
1.55263
1.55435
1.55638
1.55822
1.55966
1.56064
1.56122
1.56152
1.56162
1.56161
1.54796
1.54795
1.54786
1.54764
1.54724
1.54662
1.54575
1.54472
1.54375
1.54329
1.54379
1.54498
1.54631
1.54748
1.54835
1.54894
1.54928
1.54946
1.54952
1.54951
1.53627
1.53626
1.5362
1.53608
1.53587
1.53553
1.53506
1.53451
1.534
1.53385
1.53433
1.5352
1.53612
1.53689
1.53745
1.53783
1.53805
1.53816
1.5382
1.53819
1.52494
1.52493
1.52491
1.52485
1.52474
1.52458
1.52436
1.52412
1.52395
1.52404
1.52454
1.52524
1.52592
1.52647
1.52686
1.52712
1.52727
1.52735
1.52737
1.52737
1.5138
1.51379
1.51378
1.51376
1.51373
1.51368
1.51363
1.51361
1.51369
1.51398
1.51454
1.51519
1.51576
1.5162
1.5165
1.5167
1.51681
1.51687
1.51689
1.51688
1.5027
1.5027
1.5027
1.50271
1.50273
1.50277
1.50285
1.503
1.50328
1.50377
1.50445
1.50511
1.50565
1.50605
1.50632
1.50649
1.50659
1.50663
1.50665
1.50664
1.49158
1.49157
1.49158
1.49161
1.49168
1.49179
1.49198
1.49228
1.49275
1.49345
1.4943
1.49505
1.49563
1.49604
1.49631
1.49647
1.49657
1.49662
1.49663
1.49662
1.48034
1.48033
1.48036
1.48041
1.48052
1.4807
1.48099
1.48145
1.48212
1.48307
1.48414
1.48504
1.48571
1.48617
1.48647
1.48666
1.48676
1.48681
1.48683
1.48682
1.46893
1.46892
1.46895
1.46903
1.46918
1.46944
1.46985
1.47048
1.47139
1.47264
1.474
1.47512
1.47593
1.47649
1.47684
1.47706
1.47719
1.47725
1.47727
1.47725
1.45726
1.45725
1.45729
1.4574
1.45761
1.45795
1.45851
1.45935
1.46055
1.46217
1.46391
1.46532
1.46633
1.46702
1.46746
1.46773
1.46788
1.46795
1.46797
1.46796
1.44524
1.44523
1.44529
1.44543
1.44571
1.44617
1.4469
1.448
1.44957
1.45166
1.45389
1.45568
1.45696
1.45783
1.45838
1.45872
1.4589
1.45899
1.45902
1.459
1.43276
1.43275
1.43283
1.43302
1.43338
1.43399
1.43495
1.43638
1.43842
1.44113
1.44398
1.44626
1.44789
1.44898
1.44968
1.4501
1.45034
1.45045
1.45049
1.45046
1.41967
1.41966
1.41977
1.42002
1.42049
1.42129
1.42255
1.42442
1.42707
1.43056
1.43421
1.43712
1.43918
1.44057
1.44145
1.44199
1.44229
1.44243
1.44248
1.44244
1.40576
1.40575
1.4059
1.40624
1.40686
1.40792
1.40957
1.41202
1.41545
1.41995
1.42463
1.42834
1.43096
1.43271
1.43383
1.43451
1.43489
1.43507
1.43512
1.43508
1.39077
1.39077
1.39097
1.39142
1.39226
1.39366
1.39584
1.39906
1.40352
1.40932
1.4153
1.42001
1.42332
1.42554
1.42696
1.42782
1.4283
1.42852
1.42859
1.42854
1.37432
1.37432
1.3746
1.37522
1.37636
1.37823
1.38114
1.38538
1.39121
1.39868
1.40629
1.41225
1.41644
1.41924
1.42103
1.42211
1.42272
1.423
1.42309
1.42302
1.35587
1.35589
1.35629
1.35715
1.35871
1.36127
1.36519
1.37082
1.37843
1.38803
1.39769
1.4052
1.41047
1.414
1.41626
1.41763
1.4184
1.41876
1.41888
1.41879
1.33461
1.33467
1.33526
1.3365
1.33871
1.34228
1.34763
1.35517
1.36514
1.37744
1.38961
1.39901
1.40561
1.41005
1.41292
1.41467
1.41565
1.41612
1.41626
1.41615
1.30928
1.30943
1.31035
1.31222
1.31547
1.32059
1.32806
1.33826
1.35133
1.36699
1.38218
1.39383
1.40205
1.40764
1.4113
1.41355
1.41483
1.41546
1.41566
1.41552
1.27771
1.27809
1.27966
1.28271
1.28779
1.29543
1.30609
1.32
1.33707
1.35681
1.37552
1.38978
1.39992
1.40696
1.41168
1.41468
1.41644
1.41732
1.41763
1.41747
1.23568
1.23678
1.23995
1.24556
1.25413
1.26605
1.28152
1.30049
1.32258
1.34708
1.36971
1.38687
1.39923
1.40807
1.41425
1.41841
1.42104
1.42249
1.42308
1.42292
1.17424
1.17828
1.18641
1.19813
1.21346
1.23239
1.25478
1.28027
1.30829
1.33803
1.36478
1.38496
1.39973
1.41065
1.41875
1.42471
1.429
1.43192
1.43356
1.43365
1.07194
1.0975
1.11884
1.14231
1.16814
1.19649
1.22728
1.26015
1.29451
1.32963
1.36046
1.38365
1.40094
1.41425
1.42475
1.43324
1.44026
1.44618
1.45111
1.45529
0.969404
1.01991
1.05364
1.08821
1.12407
1.16145
1.20028
1.24023
1.28072
1.32105
1.35587
1.38201
1.40177
1.41739
1.4302
1.44103
1.45047
1.45884
1.46629
1.47547
0.906003
0.957629
0.998126
1.04037
1.08418
1.12932
1.17539
1.22185
1.2679
1.31267
1.35037
1.37819
1.39909
1.4156
1.42909
1.44036
1.44995
1.45823
1.46559
1.47396
0.852854
0.908723
0.953062
1.00012
1.04957
1.10081
1.15302
1.20521
1.25616
1.30455
1.34404
1.3723
1.39307
1.40928
1.42239
1.43327
1.44245
1.45035
1.45732
1.46487
0.808482
0.866864
0.914318
0.965297
1.01934
1.07566
1.13314
1.19037
1.24561
1.29686
1.33711
1.36467
1.38428
1.39931
1.41142
1.42147
1.43
1.43735
1.44386
1.45077
0.768957
0.82973
0.879856
0.934197
0.992236
1.05302
1.11522
1.17705
1.23617
1.28974
1.3299
1.35574
1.37321
1.38629
1.39683
1.40569
1.41333
1.42005
1.42586
1.43221
0.732436
0.7954
0.848106
0.905543
0.967231
1.03215
1.09876
1.16494
1.22774
1.28336
1.32281
1.34597
1.36028
1.37053
1.37884
1.38605
1.39253
1.39841
1.40379
1.40947
0.697601
0.762865
0.817992
0.878402
0.943538
1.01237
1.08324
1.1537
1.22023
1.27791
1.31627
1.33583
1.34584
1.35218
1.35739
1.36238
1.3673
1.37214
1.3769
1.38203
0.664014
0.731282
0.788805
0.852069
0.920539
0.993185
1.06823
1.14301
1.21347
1.27353
1.31073
1.32588
1.33027
1.33129
1.33224
1.33413
1.33696
1.34047
1.34438
1.3487
0.630228
0.7002
0.760052
0.82608
0.897811
0.974148
1.05334
1.13254
1.20727
1.27027
1.30669
1.31683
1.31409
1.30797
1.30298
1.30052
1.30041
1.30208
1.30488
1.3084
0.597079
0.669176
0.73135
0.800114
0.875008
0.954981
1.03826
1.12198
1.20136
1.26813
1.30459
1.30951
1.29807
1.28244
1.26917
1.26046
1.25615
1.25519
1.25649
1.25954
0.563558
0.638163
0.702587
0.773993
0.851953
0.935454
1.02276
1.11105
1.19545
1.26694
1.30481
1.30496
1.28339
1.25533
1.23044
1.21267
1.20215
1.1974
1.19664
1.19865
0.530106
0.606965
0.673669
0.74765
0.82855
0.91545
1.00666
1.09948
1.18917
1.2664
1.30754
1.30428
1.27176
1.22788
1.18675
1.1556
1.13572
1.12524
1.12149
1.12224
0.496368
0.57575
0.644637
0.721118
0.80484
0.894932
0.989885
1.08713
1.18222
1.26604
1.31264
1.30851
1.26542
1.20234
1.13875
1.08768
1.05333
1.03396
1.02572
1.0248
0.462788
0.544547
0.615588
0.694463
0.780852
0.873956
0.972397
1.07383
1.1743
1.26533
1.31963
1.3183
1.26702
1.18229
1.08838
1.00749
0.950329
0.916811
0.901561
0.898131
0.429221
0.513533
0.586642
0.667801
0.756714
0.852619
0.954242
1.05958
1.16517
1.26366
1.32763
1.33361
1.27917
1.17292
1.03969
0.914144
0.820313
0.763997
0.737889
0.732506
0.396316
0.482899
0.557956
0.641281
0.732542
0.831023
0.93556
1.04442
1.15471
1.26052
1.33542
1.35331
1.30355
1.18067
0.999542
0.806688
0.649301
0.559988
0.520582
0.512729
0.364231
0.452781
0.529746
0.615103
0.708505
0.809296
0.916448
1.02842
1.14294
1.25549
1.34168
1.37521
1.3397
1.21212
0.978513
0.678375
0.413434
0.269174
0.222377
0.2196
0.332443
0.423345
0.502156
0.589419
0.68479
0.787658
0.897096
1.01175
1.12982
1.24832
1.34516
1.39612
1.38379
1.27088
0.992569
0.511484
-0.0127685
-0.242979
-0.214833
-0.163894
0.301862
0.394629
0.475278
0.564363
0.661551
0.766316
0.877711
0.99458
1.11564
1.23901
1.34497
1.41265
1.4282
1.35121
1.06297
0.232687
-1.19355
-1.54868
-0.868184
-0.479211
0.271855
0.366799
0.449232
0.539959
0.638755
0.745172
0.858278
0.976961
1.10039
1.22748
1.34054
1.42212
1.46404
1.4327
1.18694
0.15871
-2.37794
-3.1826
-1.50639
-0.296173
0.24221
0.339888
0.423962
0.515936
0.616047
0.723866
0.838191
0.95829
1.08339
1.21301
1.33087
1.42212
1.48298
1.49171
1.35943
0.666393
-0.770096
-1.25395
-1.06451
-0.566314
0.213367
0.314604
0.39982
0.492759
0.59376
0.702622
0.817842
0.939098
1.06527
1.19612
1.31609
1.41109
1.47799
1.49727
1.40099
1.02852
0.461394
0.0417632
0.0486069
0.0237066
0.18293
0.292106
0.377495
0.471227
0.573051
0.682433
0.797688
0.919632
1.04595
1.17673
1.29613
1.38962
1.45128
1.4632
1.3762
1.12802
0.803629
0.504036
0.398154
0.3056
0.0593062
0.271522
0.356223
0.449539
0.551974
0.66201
0.777959
0.899673
1.02478
1.15343
1.26942
1.35665
1.407
1.40017
1.30897
1.1027
0.865139
0.64837
0.518682
0.407144
0.216507
0.244014
0.325328
0.417536
0.520137
0.630917
0.746941
0.868054
0.992398
1.11841
1.2265
1.2957
1.31814
1.27807
1.16145
0.965406
0.761355
0.593185
0.450083
0.39498
0.128563
0.218482
0.298254
0.39246
0.496021
0.607867
0.725656
0.84875
0.974438
1.09901
1.20138
1.26013
1.26527
1.20374
1.06997
0.87395
0.648843
0.484909
0.313505
0.270323
0.0840075
0.182857
0.269593
0.367601
0.473223
0.585618
0.703078
0.823518
0.944458
1.06316
1.15661
1.20279
1.19179
1.11158
0.956911
0.740015
0.473314
0.270179
0.0603069
0.0593014
0.0404004
0.148225
0.240494
0.339131
0.445342
0.5577
0.67522
0.796342
0.918094
1.03522
1.12315
1.15927
1.13568
1.04303
0.873981
0.637418
0.305533
0.00433151
-0.344449
-0.35471
-0.000858438
0.112509
0.207958
0.309616
0.417947
0.532215
0.65115
0.772165
0.89225
1.0053
1.08609
1.11281
1.079
0.97735
0.798381
0.548287
0.153946
-0.29541
-0.903647
-1.24131
-0.0348579
0.0796429
0.17657
0.279819
0.389356
0.504333
0.62365
0.744856
0.864273
0.975039
1.05117
1.07195
1.03348
0.931078
0.757808
0.500196
0.115316
-0.465314
-1.00258
-1.67803
-0.0681038
0.0439894
0.141409
0.246359
0.357692
0.474613
0.59539
0.717251
0.836248
0.944925
1.01735
1.03482
0.996759
0.902513
0.750109
0.527046
0.230176
-0.20941
-0.745285
-0.913207
-0.104837
0.00805983
0.106142
0.21238
0.3253
0.443676
0.565419
0.687834
0.806473
0.913824
0.984388
1.00208
0.970167
0.8939
0.779555
0.636201
0.467849
0.272423
0.101119
0.0775613
-0.144247
-0.0303956
0.0688147
0.17639
0.290963
0.410902
0.533912
0.657015
0.775854
0.88279
0.95338
0.974711
0.954162
0.90239
0.832003
0.758069
0.695814
0.655931
0.657864
0.686542
-0.186618
-0.0709452
0.0296347
0.138757
0.25503
0.376584
0.500973
0.625143
0.744632
0.852295
0.924897
0.953339
0.947491
0.921312
0.888093
0.859994
0.84606
0.849663
0.869476
0.89263
-0.232529
-0.113856
-0.0114778
0.0995346
0.217632
0.340969
0.466981
0.592508
0.71328
0.822887
0.899534
0.937675
0.947895
0.944906
0.939916
0.940396
0.949426
0.966506
0.988633
1.00594
-0.279093
-0.158517
-0.0540542
0.0590018
0.179092
0.304374
0.432226
0.559542
0.682273
0.794904
0.877894
0.926242
0.95246
0.968937
0.983978
1.00164
1.02278
1.04617
1.0699
1.08599
-0.32813
-0.204623
-0.0977571
0.0175394
0.139915
0.267287
0.397206
0.526669
0.65203
0.768751
0.85975
0.918661
0.959037
0.990691
1.01947
1.04766
1.07544
1.10193
1.12626
1.1417
-0.377566
-0.251078
-0.141816
-0.0241094
0.100567
0.230195
0.362433
0.494363
0.622881
0.744601
0.843554
0.913799
0.965619
1.00858
1.04661
1.08124
1.11269
1.14074
1.16516
1.18033
-0.42609
-0.296761
-0.185199
-0.0651448
0.0618569
0.19382
0.32842
0.463061
0.595102
0.722293
0.829032
0.908916
0.97054
1.02177
1.06591
1.10446
1.13796
1.16677
1.19102
1.20563
-0.47122
-0.340356
-0.226724
-0.104519
0.02467
0.158882
0.295839
0.433204
0.568809
0.701362
0.815661
0.9037
0.972826
1.02983
1.07795
1.11878
1.15339
1.18245
1.20631
1.22044
-0.513765
-0.380696
-0.265212
-0.141002
-0.00989111
0.126291
0.265348
0.405127
0.544027
0.681563
0.802448
0.896996
0.971598
1.03256
1.08313
1.12534
1.16038
1.18945
1.21299
1.22671
-0.550063
-0.41572
-0.298712
-0.173093
-0.0405068
0.097075
0.237623
0.379255
0.520741
0.662274
0.788305
0.887681
0.96609
1.02959
1.08169
1.12457
1.15989
1.18881
1.212
1.22556
-0.578585
-0.443216
-0.325404
-0.198965
-0.0656836
0.0724388
0.213513
0.355885
0.498827
0.642882
0.772341
0.87484
0.955568
1.02059
1.07353
1.11678
1.1521
1.18084
1.20365
1.21703
-0.595098
-0.460462
-0.342562
-0.216346
-0.0836556
0.0536542
0.193776
0.335415
0.478145
0.622773
0.753566
0.85747
0.939223
1.00492
1.0582
1.10157
1.13691
1.16559
1.1879
1.20138
-0.597173
-0.463606
-0.346819
-0.222395
-0.0920512
0.0423776
0.179485
0.318223
0.45848
0.601271
0.731039
0.834457
0.915955
0.98148
1.03466
1.078
1.1133
1.14204
1.1639
1.17774
-0.578665
-0.447451
-0.333789
-0.213508
-0.0882162
0.040545
0.171737
0.304732
0.439666
0.577746
0.70375
0.804504
0.884199
0.948562
1.00107
1.04409
1.07929
1.10813
1.12989
1.14437
-0.529869
-0.40427
-0.297459
-0.185119
-0.0689233
0.0501835
0.17166
0.295372
0.421649
0.551626
0.670717
0.766176
0.841959
0.903548
0.954276
0.996268
1.03103
1.05985
1.08163
1.09672
-0.437406
-0.324964
-0.230852
-0.132878
-0.0317582
0.0724441
0.179766
0.2903
0.404333
0.522611
0.631247
0.71816
0.787028
0.843081
0.889551
0.928502
0.961243
0.988826
1.01058
1.0267
-0.272574
-0.197607
-0.12919
-0.0554518
0.0230923
0.10667
0.195273
0.288831
0.387157
0.490212
0.584823
0.659692
0.717974
0.764459
0.802201
0.833117
0.858311
0.878438
0.894552
0.905393
-0.046271
-0.0262436
0.00380412
0.0432957
0.0922552
0.150396
0.217239
0.292104
0.3742
0.462642
0.54478
0.609437
0.658785
0.696806
0.726245
0.749163
0.767198
0.781323
0.791406
0.796835
0.0965117
0.101921
0.112871
0.13107
0.158142
0.195093
0.242261
0.29939
0.365704
0.439963
0.510361
0.565748
0.607224
0.638098
0.660719
0.676776
0.687531
0.694154
0.697797
0.699568
0.168173
0.171203
0.177582
0.188521
0.205465
0.229932
0.263207
0.306018
0.358319
0.419148
0.478006
0.524359
0.55853
0.583207
0.600542
0.612293
0.619911
0.624553
0.627076
0.62824
0.212224
0.214219
0.218308
0.225438
0.236826
0.253851
0.277892
0.310079
0.350924
0.39995
0.448295
0.486464
0.514298
0.534031
0.547597
0.556595
0.562302
0.565713
0.56756
0.568445
0.239084
0.240495
0.243354
0.248343
0.256395
0.268652
0.286378
0.310752
0.342552
0.381674
0.420876
0.451942
0.474469
0.490269
0.500994
0.508027
0.51245
0.515082
0.51651
0.517199
0.254469
0.255501
0.257578
0.261209
0.267102
0.276165
0.289457
0.30807
0.332835
0.363868
0.395378
0.420462
0.438604
0.451256
0.459793
0.465359
0.468847
0.470918
0.472042
0.472585
0.261739
0.262511
0.264061
0.266769
0.271179
0.278002
0.288106
0.302421
0.321729
0.346265
0.371444
0.391576
0.406135
0.416262
0.423072
0.4275
0.430267
0.431908
0.4328
0.43323
0.263072
0.263658
0.264832
0.266885
0.270236
0.275443
0.283196
0.294269
0.309353
0.328716
0.348752
0.364844
0.376489
0.384582
0.390018
0.393548
0.395752
0.39706
0.397769
0.398109
0.259966
0.260415
0.261314
0.262888
0.265461
0.269467
0.275459
0.284064
0.295866
0.311135
0.32704
0.339861
0.349152
0.355611
0.359944
0.36276
0.364518
0.365559
0.366123
0.366392
0.253492
0.253839
0.254534
0.25575
0.257739
0.260843
0.265496
0.272207
0.281457
0.293489
0.306089
0.31628
0.323676
0.328822
0.332277
0.334517
0.335913
0.336739
0.337187
0.337401
0.244435
0.244704
0.245243
0.246187
0.247732
0.250148
0.253778
0.259024
0.266282
0.275765
0.285735
0.293822
0.299701
0.303791
0.306535
0.308317
0.30943
0.310088
0.310444
0.310613
0.233387
0.233596
0.234016
0.234752
0.235957
0.237842
0.240678
0.244789
0.25049
0.257962
0.265842
0.272249
0.276912
0.280161
0.282345
0.283761
0.284642
0.285165
0.285449
0.285582
0.220789
0.220953
0.221281
0.221855
0.222797
0.224272
0.226494
0.229718
0.234199
0.240085
0.246309
0.251379
0.255074
0.257649
0.259379
0.260503
0.261204
0.261618
0.26184
0.261946
0.206987
0.207115
0.207371
0.20782
0.208557
0.209713
0.211455
0.213985
0.217507
0.222144
0.227055
0.231064
0.233988
0.236027
0.237397
0.238284
0.238836
0.239163
0.23934
0.239423
0.19224
0.19234
0.19254
0.192892
0.193471
0.194377
0.195743
0.19773
0.200499
0.204149
0.20802
0.211183
0.213491
0.215102
0.216185
0.216889
0.217327
0.217586
0.217725
0.21779
0.176759
0.176837
0.176994
0.17727
0.177723
0.178432
0.179505
0.181065
0.18324
0.18611
0.18916
0.191653
0.193471
0.194741
0.195595
0.19615
0.196496
0.196701
0.196812
0.196863
0.160699
0.16076
0.160883
0.161099
0.161454
0.162011
0.16285
0.164071
0.165777
0.16803
0.170425
0.172386
0.173821
0.174824
0.175497
0.175933
0.176204
0.176364
0.17645
0.17649
0.144191
0.144238
0.144334
0.144502
0.144779
0.145213
0.14587
0.146826
0.148161
0.149925
0.151803
0.15334
0.154464
0.155247
0.155773
0.156115
0.156328
0.156452
0.15652
0.156552
0.127328
0.127366
0.127441
0.127572
0.127786
0.128124
0.128635
0.12938
0.13042
0.131794
0.133257
0.134454
0.135329
0.13594
0.136352
0.136621
0.136789
0.136889
0.136943
0.136967
0.110193
0.110221
0.110278
0.11038
0.110547
0.110808
0.111202
0.111776
0.112578
0.11364
0.114772
0.115701
0.116381
0.116857
0.117177
0.117383
0.117511
0.117587
0.117628
0.117646
0.0928448
0.0928675
0.0929122
0.092989
0.093115
0.093314
0.0936152
0.094054
0.0946662
0.0954759
0.0963388
0.097046
0.0975632
0.0979233
0.0981656
0.0983247
0.0984234
0.09848
0.098511
0.0985267
0.0753355
0.0753518
0.0753849
0.0754435
0.0755394
0.0756889
0.0759136
0.0762403
0.0766973
0.0773015
0.0779448
0.0784723
0.0788587
0.0791298
0.0793116
0.0794284
0.0795024
0.0795478
0.0795719
0.0795824
0.057707
0.0577193
0.0577441
0.057787
0.0578561
0.0579634
0.0581241
0.0583578
0.0586838
0.059115
0.059575
0.0599537
0.0602327
0.0604283
0.0605608
0.0606475
0.0607009
0.0607314
0.0607478
0.0607555
0.0399968
0.0400071
0.0400252
0.0400535
0.0400981
0.0401677
0.0402728
0.0404261
0.0406409
0.0409251
0.0412273
0.0414759
0.0416586
0.0417878
0.0418751
0.0419317
0.0419667
0.0419875
0.0419993
0.042005
0.0222192
0.0222298
0.0222297
0.0222478
0.0222731
0.0223103
0.0223655
0.0224452
0.0225562
0.0227047
0.0228689
0.0230047
0.0231041
0.0231738
0.0232223
0.023255
0.0232759
0.0232879
0.0232928
0.0232964
0.00447221
0.00447623
0.00445269
0.00444105
0.00443882
0.00444274
0.00445218
0.00446736
0.00448915
0.00451787
0.00455231
0.00458478
0.00461002
0.00462903
0.00464212
0.00465039
0.00465584
0.00466131
0.00466831
0.00467331
-0.151681
0.0232534
0.177452
0.259425
0.291619
0.238911
0.114979
-0.0681302
-0.111818
-0.0170908
0.0762874
0.170613
0.208737
0.231051
0.216085
0.167655
0.10488
0.0581529
0.0619606
0.0815604
0.186429
0.219835
0.228037
0.226846
0.21189
0.18863
0.169734
0.166688
0.180557
0.215984
0.245387
0.2591
0.26107
0.258344
0.253881
0.250477
0.252514
0.264719
0.287956
0.325637
0.296162
0.306848
0.31137
0.315218
0.32077
0.329048
0.342029
0.362227
0.388898
0.42167
0.355788
0.368554
0.378055
0.387581
0.399879
0.414848
0.433347
0.456453
0.482363
0.510185
0.427985
0.443228
0.456496
0.469638
0.48559
0.503255
0.523515
0.545546
0.568663
0.593301
0.51046
0.527246
0.542243
0.556842
0.573695
0.591699
0.610776
0.631106
0.651671
0.673494
0.600331
0.61638
0.631975
0.645697
0.662205
0.679067
0.695902
0.713781
0.731631
0.750368
0.694654
0.709158
0.723493
0.736446
0.751794
0.766662
0.781465
0.795923
0.809156
0.822378
0.788419
0.800455
0.81332
0.826008
0.839878
0.852835
0.86354
0.873558
0.880926
0.887174
0.876138
0.892106
0.908255
0.924289
0.939448
0.951794
0.961104
0.965981
0.968595
0.967695
0.983692
1.00595
1.02363
1.03785
1.04699
1.05446
1.06025
1.06447
1.06539
1.06452
1.07389
1.09418
1.11178
1.12817
1.14259
1.1537
1.16176
1.16683
1.16982
1.17382
1.32079
1.33032
1.32288
1.31156
1.30432
1.30838
1.32526
1.35228
1.37965
1.40664
1.62042
1.48918
1.41475
1.37437
1.35878
1.36281
1.38774
1.44133
1.54169
1.76235
1.63728
1.64136
1.63856
1.62796
1.61494
1.60229
1.59111
1.58173
1.57443
1.56974
1.56877
1.57201
1.57827
1.58677
1.59717
1.60921
1.62229
1.63457
1.64218
1.63815
1.58611
1.58833
1.59038
1.58964
1.58647
1.58135
1.57506
1.56856
1.56282
1.55885
1.55802
1.56086
1.56604
1.57241
1.57901
1.58488
1.58914
1.59117
1.59053
1.58768
1.58282
1.58316
1.58337
1.58297
1.58227
1.58037
1.5774
1.57374
1.57008
1.56738
1.56685
1.56893
1.57244
1.57634
1.57982
1.58235
1.58367
1.58417
1.58427
1.58394
1.56681
1.56681
1.56667
1.56625
1.56549
1.56426
1.5625
1.5603
1.558
1.55624
1.55595
1.55745
1.55983
1.56231
1.56444
1.566
1.567
1.5676
1.56786
1.5679
1.55405
1.55407
1.55401
1.55381
1.55341
1.55273
1.55173
1.55044
1.54906
1.548
1.54791
1.54899
1.55058
1.55217
1.55346
1.55439
1.55497
1.55529
1.55543
1.55546
1.54205
1.54205
1.54201
1.5419
1.54168
1.5413
1.54075
1.54003
1.53925
1.53869
1.53877
1.53958
1.54068
1.54171
1.54254
1.54311
1.54348
1.54368
1.54376
1.54378
1.53057
1.53057
1.53055
1.53049
1.53037
1.53017
1.52989
1.52952
1.52915
1.52894
1.52916
1.52984
1.53064
1.53136
1.53192
1.5323
1.53253
1.53267
1.53272
1.53274
1.51936
1.51936
1.51934
1.51931
1.51926
1.51918
1.51907
1.51893
1.51884
1.51889
1.51926
1.51989
1.52054
1.52109
1.5215
1.52178
1.52195
1.52204
1.52209
1.52209
1.50825
1.50824
1.50824
1.50824
1.50823
1.50823
1.50823
1.50827
1.50839
1.50866
1.50918
1.50984
1.51044
1.51092
1.51126
1.51149
1.51163
1.5117
1.51173
1.51174
1.49715
1.49714
1.49714
1.49716
1.49719
1.49725
1.49735
1.49752
1.49782
1.49829
1.49899
1.49974
1.50037
1.50085
1.50117
1.50139
1.50151
1.50158
1.50161
1.50161
1.48598
1.48597
1.48598
1.486
1.48607
1.48618
1.48637
1.48667
1.48714
1.48782
1.48874
1.48965
1.49037
1.49089
1.49124
1.49147
1.4916
1.49167
1.4917
1.4917
1.47466
1.47465
1.47466
1.47471
1.4748
1.47497
1.47525
1.47569
1.47634
1.47728
1.47846
1.4796
1.48046
1.48108
1.48149
1.48175
1.4819
1.48198
1.48201
1.48201
1.46313
1.46311
1.46313
1.4632
1.46333
1.46356
1.46394
1.46454
1.46542
1.46665
1.46818
1.46962
1.47069
1.47144
1.47194
1.47226
1.47244
1.47254
1.47258
1.47258
1.4513
1.45128
1.45131
1.45139
1.45157
1.45188
1.45239
1.45318
1.45433
1.45594
1.45791
1.45974
1.4611
1.46204
1.46266
1.46305
1.46327
1.46339
1.46344
1.46345
1.43906
1.43904
1.43908
1.43919
1.43943
1.43984
1.44051
1.44154
1.44305
1.44514
1.44767
1.45001
1.45173
1.45292
1.4537
1.45419
1.45448
1.45463
1.45469
1.45469
1.4263
1.42627
1.42632
1.42647
1.42678
1.42732
1.4282
1.42955
1.43152
1.43422
1.43748
1.44047
1.44265
1.44416
1.44515
1.44577
1.44613
1.44632
1.4464
1.44641
1.41283
1.4128
1.41287
1.41307
1.41347
1.41418
1.41534
1.41711
1.41967
1.42316
1.42735
1.43117
1.43395
1.43586
1.43712
1.4379
1.43836
1.43859
1.43869
1.4387
1.39842
1.39838
1.39848
1.39875
1.39929
1.40023
1.40176
1.40408
1.40743
1.41195
1.41733
1.42219
1.42572
1.42815
1.42974
1.43072
1.4313
1.4316
1.43173
1.43174
1.38276
1.38271
1.38284
1.38321
1.38394
1.38521
1.38724
1.39031
1.39468
1.40054
1.40743
1.41362
1.41809
1.42116
1.42316
1.42441
1.42514
1.42552
1.42568
1.42569
1.36539
1.36533
1.36552
1.36603
1.36703
1.36875
1.37149
1.37557
1.38132
1.38891
1.39772
1.40556
1.4112
1.41506
1.4176
1.41917
1.4201
1.42058
1.42078
1.42079
1.34566
1.34559
1.34588
1.3466
1.348
1.35039
1.35413
1.35963
1.36722
1.37705
1.38827
1.39814
1.40521
1.41007
1.41327
1.41527
1.41644
1.41706
1.41731
1.41733
1.32256
1.3225
1.32294
1.32402
1.32606
1.32946
1.33469
1.34218
1.35227
1.36498
1.37917
1.39149
1.40031
1.4064
1.41044
1.41299
1.4145
1.41529
1.41563
1.41566
1.29448
1.29444
1.29519
1.2969
1.30003
1.30508
1.31259
1.32297
1.33642
1.35279
1.37054
1.38574
1.39664
1.40425
1.40938
1.41268
1.41467
1.41574
1.4162
1.41626
1.25843
1.25856
1.26
1.26303
1.26823
1.27619
1.28732
1.30188
1.31979
1.34064
1.36255
1.38101
1.39429
1.40373
1.41028
1.41466
1.41741
1.41897
1.41968
1.41982
1.20796
1.20902
1.21271
1.21907
1.22867
1.24186
1.25872
1.27913
1.30272
1.32885
1.35533
1.3773
1.39318
1.40473
1.41309
1.41903
1.42309
1.42568
1.4271
1.42758
1.12974
1.13439
1.14674
1.16172
1.18019
1.20213
1.22726
1.25525
1.28557
1.31752
1.34875
1.37424
1.39277
1.4066
1.41707
1.42507
1.43118
1.43585
1.43953
1.44182
1.03253
1.04657
1.07222
1.09996
1.12986
1.16181
1.19575
1.23147
1.26853
1.30629
1.3423
1.37145
1.39288
1.40935
1.42242
1.43301
1.4417
1.44886
1.45491
1.45785
0.944714
0.969867
1.00583
1.04373
1.08324
1.12411
1.16621
1.20923
1.25266
1.29576
1.3359
1.36786
1.39128
1.40944
1.42408
1.43618
1.44626
1.4546
1.46145
1.4651
0.886916
0.913843
0.953662
0.996815
1.0426
1.09027
1.13919
1.18867
1.23783
1.28561
1.32894
1.36252
1.38666
1.40515
1.41995
1.43206
1.44206
1.45026
1.45696
1.46074
0.83743
0.866863
0.910059
0.957262
1.0078
1.06078
1.11533
1.17038
1.22457
1.27631
1.32188
1.35589
1.37955
1.3973
1.41135
1.42282
1.4323
1.44008
1.44648
1.45027
0.794908
0.826118
0.872044
0.922592
0.977076
1.03458
1.09403
1.15401
1.2127
1.26786
1.31487
1.34827
1.37039
1.38651
1.39913
1.40948
1.41812
1.42533
1.4313
1.43503
0.756107
0.789195
0.837637
0.891187
0.949178
1.01074
1.07463
1.13917
1.20205
1.2603
1.30821
1.34007
1.35966
1.37322
1.38371
1.39244
1.39992
1.40633
1.41178
1.4154
0.719774
0.754605
0.805461
0.861808
0.923097
0.988442
1.05653
1.12543
1.19241
1.25368
1.30218
1.33177
1.34778
1.35775
1.36525
1.37172
1.37762
1.38299
1.38779
1.3912
0.684842
0.721471
0.774586
0.83363
0.898078
0.96706
1.03918
1.11238
1.18352
1.24798
1.29713
1.32388
1.3352
1.34031
1.34368
1.34705
1.35078
1.35475
1.35869
1.36181
0.650888
0.689066
0.744396
0.806053
0.873562
0.946056
1.02218
1.09967
1.17512
1.24318
1.29334
1.31697
1.32248
1.32116
1.31888
1.3179
1.31863
1.32064
1.3234
1.32595
0.616858
0.656824
0.71447
0.7787
0.849173
0.925112
1.00512
1.08694
1.16693
1.23911
1.29106
1.31171
1.31037
1.30071
1.29069
1.2836
1.28002
1.27927
1.28041
1.2822
0.583299
0.624747
0.684555
0.751275
0.824654
0.903942
0.987783
1.07391
1.15864
1.23557
1.29041
1.30883
1.29991
1.27971
1.2591
1.24331
1.23346
1.2287
1.22753
1.22823
0.549458
0.592509
0.654537
0.72371
0.799895
0.882407
0.969935
1.06034
1.14995
1.23221
1.29136
1.30902
1.29244
1.25941
1.22449
1.19616
1.17705
1.16627
1.16168
1.16086
0.515878
0.560245
0.624408
0.69596
0.774844
0.860455
0.951538
1.04606
1.14059
1.22868
1.29363
1.31282
1.2896
1.24181
1.18791
1.14149
1.10836
1.08835
1.07854
1.07545
0.481885
0.527983
0.594262
0.668092
0.749583
0.838118
0.932518
1.03096
1.13032
1.22457
1.29674
1.32041
1.29312
1.22982
1.15161
1.07915
1.02452
0.989975
0.972
0.965377
0.448167
0.495806
0.564154
0.640237
0.724169
0.815425
0.912987
1.01509
1.11898
1.21942
1.29997
1.33142
1.30445
1.22729
1.11965
1.01015
0.922146
0.864204
0.833164
0.821331
0.414524
0.463977
0.534312
0.612517
0.69876
0.792537
0.892949
0.998411
1.10652
1.21293
1.30251
1.34482
1.32416
1.23845
1.09843
0.937206
0.796792
0.700026
0.64956
0.631257
0.381901
0.432631
0.504869
0.58507
0.673509
0.769659
0.872608
0.981061
1.09298
1.20486
1.30347
1.35899
1.35132
1.26689
1.09686
0.864608
0.636014
0.476943
0.400402
0.376008
0.349784
0.40198
0.47599
0.55808
0.648542
0.746855
0.852128
0.96319
1.07839
1.19517
1.30213
1.37183
1.383
1.31352
1.12594
0.799237
0.40649
0.124122
0.0295367
0.029916
0.318248
0.371972
0.447794
0.531732
0.62406
0.724278
0.831602
0.944978
1.06298
1.18377
1.29808
1.3813
1.41436
1.37361
1.19525
0.75092
-0.0451565
-0.687204
-0.647847
-0.390761
0.28777
0.342862
0.420507
0.506239
0.600263
0.702168
0.811274
0.926564
1.04686
1.1709
1.29104
1.38571
1.4397
1.43478
1.2991
0.765589
-0.977623
-2.89936
-1.81285
-0.723552
0.257811
0.31439
0.394009
0.481368
0.576917
0.68021
0.790795
0.907603
1.02962
1.15606
1.28045
1.38382
1.4548
1.4825
1.40456
0.965513
-0.568505
-2.25947
-2.10628
-1.1289
0.228505
0.286802
0.36859
0.457141
0.553826
0.658379
0.770255
0.887925
1.01103
1.13884
1.26578
1.37423
1.45476
1.50112
1.46892
1.20034
0.471267
-0.357185
-0.430046
-0.339807
0.199245
0.261053
0.344556
0.433897
0.531106
0.636557
0.749428
0.867857
0.991594
1.11995
1.24746
1.35644
1.43728
1.48354
1.45715
1.27666
0.88739
0.485776
0.287777
0.259655
0.163892
0.240564
0.321728
0.411593
0.50918
0.615353
0.728064
0.847278
0.971688
1.10029
1.22692
1.33249
1.40623
1.44124
1.40514
1.25203
0.978565
0.725642
0.531246
0.425431
0.212737
0.259403
0.342249
0.435512
0.538166
0.648477
0.766905
0.8886
1.01376
1.14226
1.25687
1.34033
1.38443
1.36831
1.27257
1.08311
0.87278
0.683457
0.538954
0.444473
0.191448
0.214835
0.288759
0.376356
0.474912
0.582174
0.696588
0.817666
0.942375
1.06936
1.19072
1.28636
1.34174
1.34454
1.27722
1.12959
0.918205
0.736404
0.573856
0.443051
0.157983
0.195417
0.27106
0.357128
0.456763
0.563697
0.677359
0.796178
0.917708
1.04057
1.15651
1.24524
1.28839
1.27602
1.1907
1.03544
0.811699
0.633755
0.469752
0.317272
0.123245
0.163592
0.241808
0.331632
0.431725
0.53957
0.654307
0.77449
0.897118
1.02007
1.13246
1.20862
1.23309
1.19489
1.08487
0.909674
0.67308
0.469153
0.297242
0.108884
0.0844248
0.125003
0.2097
0.303961
0.405804
0.5147
0.630074
0.749507
0.870845
0.990967
1.0983
1.16623
1.17938
1.12916
1.00482
0.811233
0.538971
0.262584
0.0233934
-0.259763
0.0429157
0.0863449
0.176464
0.272907
0.376296
0.486964
0.603512
0.724108
0.845714
0.964487
1.06722
1.12697
1.12878
1.06592
0.929691
0.719224
0.415264
0.0362309
-0.345316
-0.990916
0.00689216
0.05104
0.144176
0.243338
0.34905
0.460996
0.578049
0.698459
0.819248
0.936104
1.03466
1.08718
1.08101
1.01175
0.872949
0.652985
0.347239
-0.148644
-0.714098
-1.79871
-0.0257091
0.0167342
0.110121
0.210585
0.317781
0.431292
0.549471
0.670795
0.791914
0.907687
1.00301
1.05084
1.04078
0.971822
0.840165
0.635594
0.346808
-0.0958465
-0.669662
-0.937778
-0.0613509
-0.0192325
0.0744013
0.17622
0.285259
0.400473
0.520071
0.642137
0.763251
0.87806
0.970926
1.01606
1.00622
0.944829
0.833587
0.674312
0.460775
0.189068
-0.169599
-0.456483
-0.0992998
-0.0566833
0.037524
0.14051
0.251026
0.367786
0.488694
0.611695
0.733155
0.847434
0.939063
0.98434
0.979353
0.932585
0.852861
0.752325
0.646075
0.544795
0.469033
0.461326
-0.139829
-0.0967082
-0.00153228
0.102812
0.214993
0.333359
0.455843
0.579944
0.701971
0.816437
0.908346
0.956555
0.960317
0.932565
0.886073
0.83489
0.792497
0.770019
0.77304
0.798863
-0.183358
-0.139378
-0.0424832
0.0634936
0.17738
0.297461
0.421595
0.547038
0.670177
0.785605
0.879508
0.933083
0.948484
0.941063
0.923624
0.907759
0.901243
0.907246
0.924769
0.950013
-0.22949
-0.184193
-0.0853929
0.0225706
0.138394
0.260401
0.386338
0.513418
0.638078
0.755334
0.853092
0.913589
0.942807
0.954136
0.959827
0.96746
0.980553
0.999337
1.02209
1.04629
-0.277457
-0.230731
-0.129696
-0.0195336
0.098396