/*--------------------------------*- C++ -*----------------------------------*\
  =========                 |
  \\      /  F ield         | OpenFOAM: The Open Source CFD Toolbox
   \\    /   O peration     | Website:  https://openfoam.org
    \\  /    A nd           | Version:  9
     \\/     M anipulation  |
\*---------------------------------------------------------------------------*/
FoamFile
{
    format      ascii;
    class       surfaceScalarField;
    location    "1";
    object      phi;
}
// * * * * * * * * * * * * * * * * * * * * * * * * * * * * * * * * * * * * * //

dimensions      [0 3 -1 0 0 0 0];

internalField   nonuniform List<scalar> 
17370
(
-0.0765169
0.0756321
0.289896
-0.0614768
0.0495918
0.358661
-0.0390505
0.0316072
0.423611
-0.0252116
0.0207081
0.503755
-0.0167669
0.0139326
0.602236
-0.0113631
0.00946271
0.720958
-0.00767237
0.00630053
0.864278
-0.00495479
0.00387491
1.03653
-0.00276432
0.00181383
1.24345
-0.000781832
-0.000183927
1.49216
0.00114459
-0.00216638
1.49221
0.00309373
-0.00417842
1.24378
0.00523064
-0.00654902
1.03696
0.00789627
-0.0096604
0.864671
0.0115357
-0.0140787
0.7216
0.0168903
-0.0208118
0.603136
0.0252991
-0.0316796
0.50582
0.0391113
-0.0496407
0.426698
0.0615149
-0.0756587
0.360919
0.0765287
0.212482
-0.174845
0.158806
0.0160388
-0.359908
0.35816
-0.0216834
0.0234316
-0.43038
0.430038
-0.024319
0.0246612
-0.510702
0.511424
-0.0245013
0.0237789
-0.607526
0.609213
-0.0226053
0.0209185
-0.72509
0.727207
-0.0191278
0.0170107
-0.867287
0.869464
-0.0150256
0.0128488
-1.03899
1.04106
-0.0109012
0.00882386
-1.2455
1.24745
-0.00698746
0.00503393
-1.49379
1.49578
-0.00325875
0.00126067
-1.49366
1.49554
0.000639756
-0.00252435
-1.24491
1.24664
0.00446898
-0.00619986
-1.03817
1.03992
0.00810145
-0.00985256
-0.866347
0.868224
0.0118496
-0.0137269
-0.723712
0.72562
0.0158267
-0.0177353
-0.605887
0.607595
0.0197651
-0.0214737
-0.508156
0.509243
0.0230686
-0.0241563
-0.42787
0.427971
0.0248124
-0.0249136
-0.360818
0.359883
0.0245137
-0.0235786
-0.280271
0.274568
0.0217787
-0.0160756
-0.152555
0.152524
3.08004e-05
-0.00456628
0.0067554
-0.357451
0.355262
-0.00864979
0.00998057
-0.427095
0.425764
-0.0110266
0.0116037
-0.509652
0.509075
-0.0117989
0.0117345
-0.608827
0.608891
-0.0112913
0.0106186
-0.727344
0.728017
-0.00961365
0.00852546
-0.870132
0.87122
-0.00717391
0.00584845
-1.04186
1.04319
-0.00429785
0.00285388
-1.24849
1.24993
-0.00102095
-0.000756146
-1.49755
1.49933
0.00249318
-0.00423743
-1.49772
1.49946
0.00573576
-0.00731626
-1.24924
1.25082
0.00849364
-0.00973027
-1.0428
1.04404
0.0107065
-0.0115987
-0.871122
0.872015
0.0121817
-0.0125491
-0.72852
0.728887
0.0125653
-0.012232
-0.609858
0.609525
0.0115448
-0.0103959
-0.510939
0.50979
0.0089894
-0.00699766
-0.428033
0.426041
0.00471207
-0.00197
-0.354482
0.35174
7.58379e-05
-0.152468
0.152392
-0.152415
0.152072
0.000342447
-0.00168663
0.00253878
-0.353789
0.352937
-0.00350044
0.00434329
-0.424425
0.423582
-0.00518951
0.00586542
-0.50826
0.507584
-0.00644854
0.00674102
-0.608706
0.608414
-0.00683602
0.00671284
-0.728406
0.728529
-0.00634954
0.00581598
-0.872062
0.872596
-0.00502665
0.00413404
-1.04434
1.04523
-0.00297899
0.00176795
-1.25132
1.25253
-0.000424814
-0.000917709
-1.50098
1.50232
0.00225743
-0.00356655
-1.50108
1.50239
0.00460431
-0.00561193
-1.25222
1.25323
0.00646947
-0.0071107
-1.04499
1.04563
0.00750763
-0.00772131
-0.872576
0.872789
0.00770485
-0.00745637
-0.728887
0.728639
0.0070377
-0.00639247
-0.608862
0.608217
0.00566773
-0.00477394
-0.508497
0.507603
0.00388983
-0.00288926
-0.424349
0.423348
0.00199617
-0.00108718
-0.350184
0.349275
0.000424358
-0.152256
0.151831
-0.151805
0.151586
0.000218231
-0.000979194
0.00135485
-0.352363
0.351987
-0.00177244
0.00215382
-0.423014
0.422632
-0.00255966
0.00290677
-0.507094
0.506747
-0.00323887
0.00346329
-0.608144
0.607919
-0.00361043
0.00363788
-0.728541
0.728514
-0.00352933
0.00329256
-0.872945
0.873182
-0.00287029
0.00233866
-1.04592
1.04645
-0.00160043
0.000796088
-1.25353
1.25433
0.000158018
-0.00111059
-1.50345
1.5044
0.00204281
-0.00292641
-1.50347
1.50435
0.00358451
-0.00410248
-1.25393
1.25445
0.00447639
-0.00475147
-1.04608
1.04635
0.00484682
-0.00479665
-0.872837
0.872787
0.00462446
-0.00432173
-0.728346
0.728043
0.0039608
-0.00350119
-0.607673
0.607214
0.00304442
-0.00252088
-0.506933
0.506409
0.00203551
-0.00150956
-0.42264
0.422114
0.0010474
-0.000580377
-0.348629
0.348162
0.000219291
-0.151519
0.1513
-0.151431
0.151331
9.99977e-05
-0.000446645
0.000623841
-0.351731
0.351554
-0.000824684
0.00101275
-0.422364
0.422176
-0.00121751
0.00139487
-0.506496
0.506319
-0.00156825
0.00169448
-0.607744
0.607618
-0.00178434
0.00180722
-0.72848
0.728457
-0.00175222
0.00161612
-0.873354
0.87349
-0.00136013
0.00102603
-1.04687
1.04721
-0.000545948
1.11333e-05
-1.25498
1.25552
0.000652228
-0.00131355
-1.5052
1.50586
0.00194227
-0.0025059
-1.50506
1.50563
0.00289654
-0.00317956
-1.25484
1.25512
0.00333316
-0.00339328
-1.0465
1.04656
0.00335086
-0.00321291
-0.87268
0.872542
0.00302002
-0.00275274
-0.727754
0.727487
0.00247385
-0.00214546
-0.606825
0.606497
0.00183648
-0.00149846
-0.505992
0.505654
0.0011977
-0.000883137
-0.421714
0.4214
0.000613117
-0.000341999
-0.347814
0.347543
0.00013309
-0.151133
0.151
-0.151269
0.151233
3.63966e-05
-0.000164735
0.000236892
-0.351435
0.351363
-0.000318601
0.00039344
-0.422051
0.421976
-0.000473062
0.000539871
-0.506202
0.506135
-0.000601177
0.000639592
-0.607538
0.607499
-0.000654163
0.000634441
-0.728454
0.728474
-0.000565747
0.000450553
-0.873609
0.873724
-0.000258202
1.8237e-05
-1.04748
1.04772
0.000317034
-0.000688215
-1.25596
1.25633
0.00114781
-0.00159423
-1.5064
1.50685
0.00199999
-0.00233749
-1.50607
1.5064
0.00254531
-0.00266678
-1.25532
1.25544
0.00269528
-0.00264894
-1.04656
1.04651
0.00254522
-0.00238022
-0.872387
0.872222
0.00219385
-0.00196493
-0.727241
0.727012
0.0017421
-0.00149242
-0.606214
0.605964
0.00126613
-0.00102537
-0.505372
0.505132
0.000816014
-0.000599567
-0.421143
0.420926
0.000415685
-0.000231873
-0.347324
0.347141
8.99855e-05
-0.150892
0.150802
-0.151215
0.151213
2.11689e-06
-8.87774e-06
1.22021e-05
-0.351329
0.351325
-1.42306e-05
1.37585e-05
-0.421942
0.421943
-8.74194e-06
-2.13638e-06
-0.50611
0.506121
2.38838e-05
-5.58761e-05
-0.607498
0.60753
0.000109386
-0.000179501
-0.728519
0.728589
0.000285837
-0.000415398
-0.873842
0.873972
0.000597159
-0.00080208
-1.04794
1.04815
0.00106941
-0.00134686
-1.25665
1.25692
0.00167409
-0.00197324
-1.50721
1.50751
0.00222228
-0.00240118
-1.50666
1.50684
0.00248313
-0.00249315
-1.2555
1.25551
0.00243921
-0.0023259
-1.04643
1.04632
0.00218574
-0.00200219
-0.872048
0.871865
0.00181805
-0.00160562
-0.726794
0.726581
0.00140948
-0.00119742
-0.605738
0.605526
0.0010103
-0.000814978
-0.504919
0.504724
0.000646824
-0.000474772
-0.420738
0.420566
0.000329502
-0.000184467
-0.34698
0.346835
7.15111e-05
-0.150722
0.150651
-0.151223
0.151246
-2.21817e-05
0.000103413
-0.000148763
-0.351348
0.351394
0.00020392
-0.000260237
-0.421973
0.422029
0.000329408
-0.00040074
-0.506164
0.506235
0.000489644
-0.000582619
-0.607594
0.607687
0.000699433
-0.000822235
-0.728685
0.728808
0.000976853
-0.00113849
-0.874115
0.874277
0.00133915
-0.00154332
-1.04835
1.04855
0.00178626
-0.00201785
-1.25717
1.2574
0.00226819
-0.00247177
-1.50776
1.50796
0.00261347
-0.00267915
-1.50695
1.50702
0.0026665
-0.00259013
-1.25547
1.2554
0.00247291
-0.00230757
-1.04618
1.04601
0.00213231
-0.00192508
-0.871671
0.871464
0.00172879
-0.00151287
-0.726371
0.726155
0.00131923
-0.00111467
-0.605321
0.605116
0.000936996
-0.000753139
-0.504537
0.504353
0.000596241
-0.00043706
-0.420403
0.420244
0.000303471
-0.000170022
-0.346698
0.346565
6.55185e-05
-0.150584
0.150518
-0.151278
0.151322
-4.30188e-05
0.000199095
-0.000286255
-0.35146
0.351548
0.000390735
-0.000495408
-0.42211
0.422215
0.000621279
-0.000747047
-0.506334
0.50646
0.000897656
-0.00104795
-0.607808
0.607959
0.00122773
-0.00140599
-0.728958
0.729136
0.00161734
-0.00182409
-0.87446
0.874666
0.00206409
-0.00229125
-1.04876
1.04899
0.00254217
-0.00276181
-1.25763
1.25785
0.00297477
-0.0031206
-1.50813
1.50828
0.00318868
-0.00317046
-1.50704
1.50702
0.00308519
-0.00293289
-1.25528
1.25513
0.00275572
-0.00253331
-1.04582
1.0456
0.00231536
-0.00206933
-0.871239
0.870992
0.00184438
-0.00160343
-0.725928
0.725687
0.00139138
-0.00117087
-0.604906
0.604686
0.000981291
-0.000787507
-0.504167
0.503973
0.000623363
-0.000457334
-0.420083
0.419917
0.000317682
-0.000177922
-0.34643
0.34629
6.83889e-05
-0.150453
0.150384
-0.151374
0.151438
-6.32945e-05
0.000292999
-0.000421912
-0.351655
0.351784
0.000576182
-0.00072953
-0.422344
0.422497
0.00091222
-0.00109329
-0.506612
0.506793
0.00130833
-0.00152001
-0.608139
0.608351
0.00176845
-0.00201011
-0.729345
0.729587
0.00228928
-0.00255477
-0.874901
0.875166
0.00285191
-0.00312228
-1.04924
1.04951
0.00340586
-0.00363865
-1.25807
1.2583
0.00384273
-0.00395551
-1.50841
1.50852
0.00397006
-0.00388173
-1.50697
1.50688
0.00372802
-0.00350232
-1.25494
1.25471
0.00326081
-0.00297312
-1.04534
1.04506
0.00270064
-0.00240016
-0.870722
0.870421
0.00213101
-0.00184605
-0.725427
0.725142
0.00159829
-0.0013419
-0.60445
0.604193
0.00112284
-0.000899713
-0.503767
0.503544
0.000711552
-0.00052147
-0.419741
0.419551
0.000361746
-0.000201926
-0.346142
0.345982
7.68647e-05
-0.150312
0.150236
-0.151512
0.151598
-8.64055e-05
0.000398924
-0.000573717
-0.351935
0.35211
0.000782557
-0.000990289
-0.422676
0.422884
0.0012375
-0.00148159
-0.507005
0.507249
0.00176951
-0.00205149
-0.608596
0.608878
0.00238044
-0.00269732
-0.729864
0.730181
0.00305953
-0.00339897
-0.875466
0.875806
0.00377315
-0.00410567
-1.04981
1.05014
0.00444474
-0.00471143
-1.25855
1.25882
0.00492882
-0.00502619
-1.50862
1.50872
0.00499876
-0.00484491
-1.50676
1.5066
0.00462109
-0.00431317
-1.25445
1.25414
0.00399558
-0.00362642
-1.04473
1.04436
0.00328224
-0.00290837
-0.870087
0.869713
0.00257598
-0.00222726
-0.724828
0.724479
0.00192528
-0.0016149
-0.603912
0.603602
0.00135066
-0.00108221
-0.5033
0.503032
0.000855803
-0.000627348
-0.419343
0.419115
0.000435677
-0.000243724
-0.345808
0.345617
9.29717e-05
-0.150151
0.150058
-0.151698
0.151811
-0.000113407
0.000523761
-0.000753897
-0.352311
0.352541
0.00102878
-0.00130155
-0.423123
0.423396
0.00162553
-0.0019451
-0.507529
0.507848
0.00232197
-0.00268985
-0.609201
0.609569
0.00311733
-0.00352752
-0.730542
0.730952
0.00399367
-0.00442779
-0.87619
0.876624
0.00490136
-0.00531793
-1.05051
1.05093
0.00573562
-0.0060562
-1.25911
1.25943
0.00630492
-0.00639836
-1.50881
1.50891
0.00633294
-0.00610948
-1.50642
1.50619
0.00580621
-0.00540095
-1.25379
1.25338
0.00499077
-0.00451885
-1.04394
1.04347
0.00408312
-0.00361197
-0.869293
0.868822
0.00319558
-0.00275984
-0.72409
0.723654
0.00238389
-0.00199818
-0.603256
0.602871
0.00167053
-0.00133763
-0.502733
0.5024
0.00105701
-0.000774474
-0.418862
0.418579
0.000538064
-0.000301473
-0.345404
0.345167
0.000115119
-0.149955
0.14984
-0.15194
0.152088
-0.000147509
0.000680048
-0.000978123
-0.352803
0.353101
0.0013342
-0.00168769
-0.423706
0.42406
0.00210752
-0.0025211
-0.508212
0.508626
0.00300792
-0.00348263
-0.609987
0.610461
0.00403339
-0.00456046
-0.731417
0.731944
0.00515789
-0.00571196
-0.877115
0.877669
0.00631385
-0.0068395
-1.0514
1.05192
0.00736191
-0.0077568
-1.25978
1.26018
0.00805392
-0.00815111
-1.509
1.5091
0.00804662
-0.00774269
-1.50593
1.50563
0.00734327
-0.00681774
-1.25292
1.25239
0.00629039
-0.0056881
-1.04294
1.04234
0.00513436
-0.00453817
-0.868292
0.867696
0.00401268
-0.00346386
-0.723165
0.722616
0.00299099
-0.00250613
-0.602439
0.601954
0.00209433
-0.00167641
-0.502028
0.50161
0.00132456
-0.00097019
-0.418263
0.417909
0.000673714
-0.000377029
-0.344902
0.344605
0.000143709
-0.149712
0.149568
-0.152256
0.152446
-0.000190503
0.000877374
-0.00126193
-0.35344
0.353825
0.00172091
-0.00217627
-0.424461
0.424917
0.00271678
-0.00324914
-0.509095
0.509628
0.00387546
-0.00448569
-0.611
0.61161
0.00519287
-0.00586885
-0.732541
0.733217
0.00663338
-0.00734078
-0.878295
0.879002
0.00810635
-0.0087721
-1.05251
1.05318
0.00942929
-0.00992126
-1.26062
1.26111
0.0102835
-0.0103898
-1.5092
1.50931
0.0102388
-0.00983618
-1.50528
1.50487
0.00931674
-0.00863977
-1.2518
1.25112
0.00796443
-0.00719567
-1.04166
1.04089
0.00649116
-0.00573392
-0.867025
0.866267
0.00506759
-0.00437287
-0.721999
0.721305
0.00377532
-0.00316305
-0.601409
0.600797
0.00264358
-0.0021168
-0.501141
0.500614
0.00167345
-0.00122653
-0.417511
0.417064
0.000851386
-0.000475865
-0.344272
0.343896
0.000180806
-0.149407
0.149226
-0.152662
0.152908
-0.000245756
0.0011299
-0.00162493
-0.354261
0.354756
0.00221575
-0.00280178
-0.425433
0.426019
0.00349692
-0.00418136
-0.510231
0.510916
0.004986
-0.00576948
-0.612301
0.613085
0.00667639
-0.00754206
-0.733982
0.734848
0.00851968
-0.00942214
-0.879801
0.880703
0.0103964
-0.0112404
-1.05393
1.05477
0.0120691
-0.0126842
-1.26166
1.26228
0.0131291
-0.0132462
-1.50942
1.50954
0.0130363
-0.0125077
-1.50441
1.50388
0.011836
-0.0109663
-1.25035
1.24948
0.0101022
-0.0091221
-1.04002
1.03904
0.00822519
-0.00726344
-0.865414
0.864452
0.00641751
-0.00553663
-0.720523
0.719642
0.00477855
-0.00400266
-0.600108
0.599333
0.00334412
-0.00267679
-0.500022
0.499354
0.00211526
-0.00154967
-0.416561
0.415996
0.00107577
-0.000601454
-0.343475
0.343
0.000228771
-0.149022
0.148793
-0.153187
0.153505
-0.000317235
0.00145606
-0.00209337
-0.355318
0.355955
0.00285411
-0.00360856
-0.426684
0.427439
0.00450344
-0.00538383
-0.511692
0.512572
0.00641818
-0.00742405
-0.613972
0.614978
0.00858707
-0.00969557
-0.735828
0.736936
0.0109452
-0.0120963
-0.881723
0.882874
0.0133355
-0.0144048
-1.05572
1.05679
0.0154491
-0.0162173
-1.26296
1.26373
0.0167623
-0.0168887
-1.50966
1.50978
0.0165997
-0.015908
-1.50328
1.50259
0.0150404
-0.0139241
-1.2485
1.24738
0.0128198
-0.0115695
-1.03793
1.03668
0.0104282
-0.00920511
-0.863367
0.862144
0.00813131
-0.00701327
-0.718649
0.717531
0.00605242
-0.0050692
-0.598459
0.597476
0.00423553
-0.00339023
-0.498603
0.497758
0.00267867
-0.00196236
-0.41536
0.414643
0.00136257
-0.000762324
-0.342467
0.341867
0.000290169
-0.148535
0.148245
-0.153865
0.154276
-0.000410928
0.00188157
-0.00270401
-0.356679
0.357501
0.00368503
-0.00465743
-0.428295
0.429267
0.00581026
-0.00694382
-0.513571
0.514704
0.00827463
-0.00956776
-0.616119
0.617412
0.011061
-0.0124819
-0.738191
0.739612
0.0140799
-0.0155478
-0.884174
0.885642
0.0171219
-0.0184739
-1.05799
1.05935
0.0197855
-0.0207403
-1.26459
1.26554
0.0214018
-0.0215296
-1.50991
1.51004
0.0211309
-0.0202244
-1.5018
1.50089
0.0191032
-0.0176711
-1.24612
1.24469
0.0162598
-0.0146672
-1.03527
1.03368
0.0132157
-0.0116624
-0.860766
0.859213
0.0102997
-0.0088819
-0.716272
0.714854
0.00766396
-0.00641805
-0.596369
0.595123
0.00536184
-0.00429121
-0.496806
0.495736
0.00339058
-0.00248385
-0.413837
0.41293
0.0017246
-0.000964655
-0.341191
0.340431
0.000367207
-0.14792
0.147552
-0.154744
0.155279
-0.000534234
0.00243881
-0.00350333
-0.358436
0.359501
0.00477289
-0.00603091
-0.430373
0.431631
0.00752109
-0.00898499
-0.515992
0.517456
0.0107015
-0.0123667
-0.618879
0.620544
0.0142858
-0.0161074
-0.74122
0.743042
0.0181502
-0.0200197
-0.887299
0.889168
0.0220151
-0.0237185
-1.06087
1.06257
0.0253567
-0.026533
-1.2666
1.26778
0.027323
-0.027434
-1.51016
1.51027
0.0268805
-0.0256901
-1.49985
1.49866
0.0242414
-0.0224048
-1.24306
1.24123
0.0206033
-0.0185759
-1.03188
1.02985
0.0167316
-0.0147612
-0.857463
0.855493
0.0130336
-0.0112379
-0.713258
0.711463
0.0096956
-0.00811823
-0.593721
0.592143
0.00678109
-0.00542631
-0.494532
0.493177
0.00428689
-0.00313987
-0.41191
0.410763
0.00217909
-0.00121778
-0.339576
0.338615
0.000462826
-0.147141
0.146678
-0.15589
0.156589
-0.000699219
0.0031793
-0.00456379
-0.360714
0.362098
0.00621385
-0.00784768
-0.433063
0.434697
0.00978149
-0.0116787
-0.519122
0.521019
0.0138996
-0.0160499
-0.622435
0.624586
0.0185214
-0.0208597
-0.745106
0.747444
0.0234704
-0.0258472
-0.891277
0.893654
0.0283673
-0.0305007
-1.06448
1.06661
0.0325283
-0.0339578
-1.26908
1.27051
0.0348765
-0.0349352
-1.51037
1.51042
0.0341604
-0.0325924
-1.49729
1.49573
0.0307194
-0.0283671
-1.23915
1.2368
0.0260711
-0.0234954
-1.02757
1.02499
0.0211568
-0.0186606
-0.853274
0.850778
0.0164742
-0.0142026
-0.709442
0.707171
0.0122523
-0.0102587
-0.59037
0.588376
0.00856886
-0.00685697
-0.491654
0.489942
0.00541698
-0.00396729
-0.409473
0.408024
0.00275323
-0.00153856
-0.337534
0.33632
0.000584605
-0.146157
0.145573
-0.157391
0.158316
-0.000924219
0.00417764
-0.00599133
-0.363682
0.365495
0.00815114
-0.0102874
-0.436564
0.4387
0.0128119
-0.0152841
-0.523183
0.525655
0.0181708
-0.0209563
-0.627032
0.629817
0.0241451
-0.027147
-0.750093
0.753095
0.0304789
-0.0334896
-0.89633
0.899341
0.0366525
-0.0392983
-1.06899
1.07164
0.0417728
-0.0434721
-1.27207
1.27377
0.0444951
-0.0444372
-1.51044
1.51038
0.0433444
-0.0412742
-1.49392
1.49185
0.0388551
-0.0358477
-1.23413
1.23113
0.0329302
-0.0296676
-1.02209
1.01883
0.0267113
-0.0235591
-0.847972
0.84482
0.0207996
-0.0179321
-0.704618
0.70175
0.0154708
-0.0129535
-0.586135
0.583618
0.0108203
-0.00865861
-0.488018
0.485856
0.00684011
-0.00500918
-0.406394
0.404563
0.00347588
-0.00194188
-0.334954
0.33342
0.000737456
-0.144917
0.144179
-0.159383
0.160622
-0.00123899
0.00555636
-0.00795741
-0.367579
0.36998
0.0108125
-0.0136315
-0.44115
0.443969
0.0169548
-0.020199
-0.528484
0.531728
0.0239724
-0.0275959
-0.632992
0.636616
0.0317186
-0.0355708
-0.756496
0.760349
0.0398071
-0.0435937
-0.902721
0.906508
0.0475185
-0.050748
-1.07457
1.0778
0.053699
-0.0556503
-1.2756
1.27756
0.0567057
-0.0564202
-1.51022
1.50994
0.054869
-0.0521342
-1.48948
1.48674
0.0490175
-0.0451912
-1.22773
1.22391
0.0415024
-0.0373916
-1.01516
1.01105
0.0336721
-0.0297081
-0.841282
0.837318
0.0262366
-0.0226286
-0.698533
0.694925
0.0195285
-0.0163566
-0.580792
0.57762
0.0136658
-0.0109376
-0.483427
0.480699
0.00864121
-0.0063282
-0.402506
0.400193
0.00439049
-0.0024519
-0.331696
0.329758
0.000930557
-0.143351
0.142421
-0.162068
0.163768
-0.00169952
0.00753011
-0.0107604
-0.372758
0.375988
0.0145914
-0.0183624
-0.447223
0.450994
0.0227903
-0.0270906
-0.535458
0.539758
0.0320592
-0.0367916
-0.640755
0.645487
0.0421233
-0.047047
-0.764707
0.769631
0.0523875
-0.0570842
-0.910736
0.915432
0.0618585
-0.0656934
-1.08133
1.08517
0.0690811
-0.0711937
-1.2796
1.28172
0.0721288
-0.0714342
-1.50948
1.50878
0.0692274
-0.0656213
-1.4836
1.47999
0.0616288
-0.0567958
-1.2196
1.21477
0.0521704
-0.0470336
-1.00645
1.00131
0.04239
-0.0374381
-0.832883
0.827931
0.0330953
-0.0285719
-0.690882
0.686359
0.0246779
-0.020685
-0.574061
0.570068
0.0172925
-0.0138475
-0.477634
0.474189
0.0109446
-0.00801799
-0.397593
0.394666
0.00556421
-0.00310795
-0.327577
0.325121
0.00117971
-0.141373
0.140194
-0.165786
0.168212
-0.00242629
0.0105439
-0.0150041
-0.379766
0.384226
0.0202665
-0.0254153
-0.455389
0.460537
0.0314139
-0.0371836
-0.544734
0.550503
0.0437711
-0.0499572
-0.650901
0.657087
0.0568114
-0.0630235
-0.775176
0.781388
0.0696183
-0.075281
-0.920615
0.926277
0.0808764
-0.0852173
-1.08928
1.09362
0.0888608
-0.0909174
-1.28384
1.2859
0.0914498
-0.0900636
-1.50778
1.5064
0.0869308
-0.0821991
-1.47586
1.47113
0.0771308
-0.0710979
-1.20936
1.20333
0.0653743
-0.059042
-0.995599
0.989266
0.0533199
-0.0472077
-0.822419
0.816307
0.0418286
-0.0362027
-0.681307
0.675681
0.0313358
-0.0263217
-0.565591
0.560577
0.0220417
-0.0176781
-0.470314
0.46595
0.0139887
-0.0102596
-0.391367
0.387638
0.00712686
-0.00398576
-0.322349
0.319208
0.00151535
-0.13886
0.137344
-0.171173
0.175002
-0.00382923
0.0159037
-0.0223286
-0.389548
0.395973
0.0297953
-0.0369927
-0.46664
0.473837
0.0452361
-0.0530105
-0.557228
0.565003
0.0616893
-0.0696408
-0.664137
0.672089
0.0782168
-0.08577
-0.788287
0.79584
0.0935414
-0.0999928
-0.932379
0.938831
0.106114
-0.110623
-1.0981
1.10261
0.114097
-0.115683
-1.28778
1.28937
0.115351
-0.112864
-1.50452
1.50203
0.108452
-0.102297
-1.46572
1.45957
0.0959456
-0.0885372
-1.19663
1.18922
0.0815884
-0.0739426
-0.982287
0.974641
0.0670438
-0.0596595
-0.809564
0.80218
0.0531315
-0.0462567
-0.669439
0.662565
0.0402595
-0.0340217
-0.554967
0.548729
0.0286435
-0.0231046
-0.461026
0.455487
0.0183752
-0.0135507
-0.383404
0.37858
0.00946345
-0.00533146
-0.315637
0.311505
0.00203799
-0.135609
0.133571
-0.179712
0.187982
-0.00826988
0.029269
-0.0386869
-0.404049
0.413467
0.0492073
-0.0590308
-0.482654
0.492478
0.0699395
-0.0799181
-0.574078
0.584056
0.0906832
-0.100201
-0.680961
0.690479
0.110106
-0.118511
-0.803932
0.812338
0.126811
-0.133388
-0.94546
0.952037
0.139276
-0.143243
-1.10696
1.11093
0.145796
-0.146247
-1.29048
1.29093
0.144388
-0.140254
-1.4988
1.49466
0.134126
-0.126224
-1.45258
1.44468
0.118386
-0.109474
-1.18107
1.17216
0.101242
-0.0922719
-0.966326
0.957356
0.0842219
-0.0756244
-0.794161
0.785563
0.0680158
-0.0599681
-0.655051
0.647003
0.0528966
-0.0454753
-0.54181
0.534388
0.0390003
-0.03222
-0.449203
0.442423
0.0263117
-0.0201246
-0.37298
0.366793
0.0146753
-0.00875017
-0.306701
0.300776
0.00333572
-0.131217
0.127882
-0.197782
0.200472
-0.00268908
0.0200885
-0.0291816
-0.426961
0.436055
0.0399003
-0.0503263
-0.504934
0.51536
0.0620666
-0.0734376
-0.595247
0.606618
0.0855673
-0.0963445
-0.700377
0.711155
0.10827
-0.118843
-0.820611
0.831184
0.129815
-0.139208
-0.958169
0.967563
0.148517
-0.155935
-1.1142
1.12162
0.162478
-0.166684
-1.29048
1.29468
0.16879
-0.167881
-1.48944
1.48853
0.16388
-0.157211
-1.43575
1.42908
0.149483
-0.139759
-1.16244
1.15272
0.130277
-0.118975
-0.947752
0.936451
0.108547
-0.096989
-0.776416
0.764858
0.0865176
-0.0752184
-0.63841
0.627111
0.0649273
-0.0542703
-0.52629
0.515633
0.0452756
-0.0357268
-0.434689
0.42514
0.0277183
-0.0196956
-0.359335
0.351313
0.0128751
-0.00610317
-0.293854
0.287082
0.00124418
-0.12376
0.122516
-0.212314
0.207518
0.0047962
0.00283742
-0.00981108
-0.449032
0.456005
0.0191078
-0.0279879
-0.52712
0.536
0.0385782
-0.0482949
-0.617735
0.627451
0.0591522
-0.0690405
-0.722085
0.731974
0.0796363
-0.0892475
-0.841512
0.851123
0.0992768
-0.107635
-0.976948
0.985306
0.116176
-0.122696
-1.12919
1.13571
0.128455
-0.131909
-1.29896
1.30242
0.133105
-0.131558
-1.48722
1.48567
0.127059
-0.120098
-1.42199
1.41503
0.112128
-0.102436
-1.14285
1.13316
0.0932402
-0.0828832
-0.925307
0.91495
0.0733355
-0.0628459
-0.753387
0.742898
0.0535481
-0.0439762
-0.615573
0.606001
0.0358428
-0.0274882
-0.504438
0.496083
0.0205855
-0.0140265
-0.413849
0.40729
0.00909536
-0.00461852
-0.339908
0.335432
0.00146782
0.000963046
-0.276431
0.274
-0.00187014
-0.116006
0.117876
-0.217356
0.213397
0.00395899
0.000848181
-0.00592396
-0.46553
0.470606
0.0127576
-0.0198785
-0.54516
0.552281
0.0282594
-0.0363108
-0.636851
0.644903
0.0454175
-0.0538808
-0.741411
0.749875
0.0632726
-0.0717324
-0.860229
0.868689
0.0804446
-0.0881186
-0.99371
1.00138
0.0958361
-0.101899
-1.14212
1.14819
0.106921
-0.109812
-1.3056
1.30849
0.1108
-0.10905
-1.48383
1.48208
0.104552
-0.0978264
-1.40786
1.40113
0.0903712
-0.0816356
-1.12377
1.11503
0.073171
-0.0640042
-0.904785
0.895618
0.0557162
-0.0467925
-0.733268
0.724344
0.0392025
-0.0314051
-0.596908
0.58911
0.0249382
-0.01824
-0.487599
0.480901
0.0129784
-0.00809045
-0.399285
0.394398
0.00450409
-0.00154196
-0.327482
0.32452
-0.000370532
0.00178983
-0.266234
0.264815
-0.00212103
-0.112289
0.11441
-0.221996
0.21825
0.00374548
-0.000101382
-0.00412747
-0.47831
0.482539
0.00976372
-0.0159386
-0.559549
0.565724
0.0233263
-0.0302425
-0.652672
0.659588
0.0382848
-0.0458122
-0.758241
0.765768
0.0541639
-0.0617553
-0.876909
0.884501
0.0700135
-0.0769728
-1.00891
1.01586
0.0842302
-0.0895924
-1.15418
1.15954
0.0944168
-0.0972418
-1.31151
1.31433
0.0981458
-0.0962859
-1.48026
1.4784
0.0921754
-0.0860113
-1.3942
1.38804
0.0791518
-0.0708736
-1.10638
1.09811
0.063216
-0.0550167
-0.88651
0.87831
0.0475512
-0.0398926
-0.71586
0.708202
0.0330751
-0.0262802
-0.581351
0.574556
0.0205918
-0.0149792
-0.474161
0.468549
0.0105418
-0.00629062
-0.38795
0.383699
0.00312697
-0.000800677
-0.318003
0.315677
-0.000950655
0.00204129
-0.258517
0.257427
-0.00200534
-0.109436
0.111442
-0.226526
0.223236
0.00329058
-0.000192206
-0.0035725
-0.489317
0.493081
0.0091327
-0.0146785
-0.572301
0.577847
0.0211856
-0.0277376
-0.666608
0.67316
0.0349498
-0.0419856
-0.77313
0.780166
0.0497182
-0.0568128
-0.891981
0.899076
0.0645078
-0.0712509
-1.02298
1.02973
0.0780842
-0.0835667
-1.16509
1.17057
0.0883633
-0.091261
-1.31714
1.32004
0.0923482
-0.0907542
-1.47664
1.47505
0.086976
-0.0810194
-1.38142
1.37546
0.0745472
-0.0668668
-1.0899
1.08222
0.0596687
-0.0518354
-0.869952
0.862119
0.0449083
-0.0376791
-0.700409
0.69318
0.0314486
-0.025109
-0.567708
0.561368
0.0198652
-0.0146708
-0.462514
0.45732
0.0103702
-0.00633575
-0.3782
0.374166
0.00351286
-0.00104025
-0.310068
0.307596
-0.000774532
0.00168708
-0.251864
0.250951
-0.00185333
-0.106948
0.108801
-0.230841
0.227876
0.00296511
0.000138539
-0.00411822
-0.499258
0.503237
0.00905767
-0.0144077
-0.58354
0.58889
0.0209278
-0.0270232
-0.679437
0.685533
0.0338574
-0.0405459
-0.786944
0.793633
0.0480235
-0.0549448
-0.906167
0.913088
0.0626263
-0.0692069
-1.03651
1.0431
0.0760803
-0.0816822
-1.1761
1.18171
0.0866499
-0.0897809
-1.32299
1.32612
0.0911736
-0.090227
-1.47355
1.4726
0.0867115
-0.0811459
-1.36914
1.36357
0.0748515
-0.06732
-1.07428
1.06675
0.0604273
-0.0525979
-0.854055
0.846225
0.0457221
-0.0386775
-0.685741
0.678696
0.0325584
-0.0263235
-0.554941
0.548706
0.0211079
-0.0157913
-0.451673
0.446356
0.0116771
-0.00763054
-0.369073
0.365026
0.00445028
-0.00183084
-0.30243
0.299811
6.79452e-07
0.00125372
-0.245762
0.244508
-0.00157205
-0.104548
0.10612
-0.234954
0.232577
0.0023766
0.000956589
-0.00486333
-0.508763
0.512669
0.00997168
-0.01496
-0.594595
0.599583
0.0213592
-0.0273306
-0.691698
0.697669
0.0343082
-0.0407353
-0.800414
0.806841
0.0480596
-0.0548845
-0.920309
0.927134
0.0627717
-0.069447
-1.05004
1.05672
0.0764053
-0.0823676
-1.18746
1.19342
0.0880748
-0.0916192
-1.32956
1.33311
0.0936269
-0.0930586
-1.47145
1.47088
0.0901556
-0.084587
-1.35772
1.35215
0.0784955
-0.071062
-1.05883
1.0514
0.0639643
-0.0561615
-0.838133
0.83033
0.0490968
-0.0417046
-0.671129
0.663736
0.0356038
-0.0291038
-0.542102
0.535602
0.0236116
-0.0182338
-0.440663
0.435285
0.0137841
-0.00935325
-0.360077
0.355646
0.00600456
-0.00306933
-0.295002
0.292066
0.000993805
0.000614006
-0.239672
0.238065
-0.00131072
-0.102091
0.103402
-0.239224
0.237289
0.00193518
0.00178718
-0.00561902
-0.517913
0.521745
0.0109205
-0.0160217
-0.605363
0.610464
0.0223087
-0.0281749
-0.703777
0.709643
0.0348991
-0.0415619
-0.813624
0.820287
0.0489536
-0.0563133
-0.934102
0.941462
0.0640281
-0.0710197
-1.0638
1.0708
0.0786674
-0.0849667
-1.19961
1.20591
0.0908914
-0.0954186
-1.33687
1.3414
0.0982113
-0.0983558
-1.4705
1.47064
0.0958416
-0.0907572
-1.34658
1.34149
0.0846932
-0.0770802
-1.04331
1.03569
0.0697686
-0.06159
-0.821969
0.813791
0.0541847
-0.0465131
-0.655942
0.64827
0.0397661
-0.0329252
-0.528628
0.521787
0.0271752
-0.0212812
-0.429365
0.423471
0.0164071
-0.0118151
-0.35045
0.345858
0.00806234
-0.00461391
-0.287171
0.283722
0.00211127
-0.000109282
-0.233351
0.231349
-0.00101432
-0.0996716
0.100686
-0.243795
0.242133
0.0016619
0.0028038
-0.00679536
-0.526987
0.530979
0.0119971
-0.0172023
-0.616113
0.621318
0.023358
-0.0293852
-0.715924
0.721951
0.0362788
-0.0428804
-0.827104
0.833705
0.0507705
-0.0577855
-0.948612
0.955627
0.0659341
-0.0732297
-1.07827
1.08556
0.0813407
-0.0883997
-1.21254
1.2196
0.0952759
-0.100275
-1.34605
1.35105
0.104115
-0.105191
-1.47089
1.47197
0.10356
-0.0987474
-1.33611
1.3313
0.0927843
-0.0849475
-1.0277
1.01986
0.0772957
-0.0685442
-0.804862
0.796111
0.0606934
-0.052298
-0.639863
0.631468
0.0450211
-0.0375525
-0.514346
0.506877
0.0311961
-0.0249595
-0.417052
0.410816
0.0195858
-0.0144673
-0.340163
0.335044
0.0101841
-0.00628679
-0.278679
0.274782
0.00339731
-0.000790916
-0.22644
0.223834
-0.000624029
-0.0970809
0.0977049
-0.248233
0.24701
0.00122332
0.00360701
-0.00797803
-0.536207
0.540578
0.0130043
-0.0183058
-0.626532
0.631834
0.0243152
-0.0304253
-0.728104
0.734214
0.0374129
-0.0444215
-0.840517
0.847526
0.0520676
-0.0595646
-0.963129
0.970626
0.0681059
-0.0756413
-1.09357
1.10111
0.0843843
-0.0919813
-1.22685
1.23445
0.0996625
-0.105888
-1.35681
1.36303
0.111012
-0.11308
-1.47336
1.47543
0.112203
-0.108158
-1.32649
1.32245
0.102462
-0.0943879
-1.01139
1.00332
0.0862304
-0.0769821
-0.786612
0.777364
0.0681396
-0.0591157
-0.62224
0.613216
0.0511261
-0.042852
-0.498873
0.490599
0.0359755
-0.0289907
-0.40366
0.396675
0.0231377
-0.0172915
-0.329082
0.323236
0.0126114
-0.0081437
-0.269443
0.264976
0.00460926
-0.00148317
-0.218913
0.215787
-0.000330634
-0.0941971
0.0945277
-0.252916
0.251959
0.000957508
0.0042661
-0.00842426
-0.545492
0.54965
0.0140048
-0.0190523
-0.637321
0.642369
0.0253041
-0.0314414
-0.74022
0.746357
0.0384991
-0.0453483
-0.854504
0.861353
0.0533792
-0.0608656
-0.978406
0.985892
0.0697237
-0.0780552
-1.10939
1.11772
0.0869756
-0.0954507
-1.24245
1.25092
0.104247
-0.111364
-1.3696
1.37672
0.117853
-0.12159
-1.47805
1.48179
0.121856
-0.118851
-1.31828
1.31527
0.11326
-0.105136
-0.994741
0.986617
0.0965827
-0.0864545
-0.76701
0.756881
0.0768984
-0.0667985
-0.602997
0.592897
0.0579244
-0.0486828
-0.481564
0.472322
0.0409496
-0.033258
-0.388919
0.381228
0.0266604
-0.0202232
-0.3167
0.310263
0.014955
-0.00988283
-0.25921
0.254138
0.00590653
-0.00226712
-0.210668
0.207028
4.02786e-05
-0.091252
0.0912117
-0.257705
0.256963
0.000742408
0.0050225
-0.00922082
-0.554732
0.558931
0.0145321
-0.0197779
-0.647849
0.653095
0.026013
-0.0320989
-0.752392
0.758478
0.0393761
-0.0462313
-0.868434
0.87529
0.054327
-0.0621503
-0.994078
1.0019
0.07118
-0.0798151
-1.1262
1.13484
0.0893987
-0.0984164
-1.25971
1.26873
0.108119
-0.116795
-1.38459
1.39327
0.124822
-0.129982
-1.486
1.49116
0.131996
-0.130017
-1.31226
1.31028
0.125229
-0.117292
-0.977948
0.970012
0.108119
-0.0970617
-0.745668
0.734611
0.0864848
-0.075007
-0.581594
0.570116
0.065054
-0.0546191
-0.462377
0.451942
0.0459626