/*--------------------------------*- C++ -*----------------------------------*\
  =========                 |
  \\      /  F ield         | OpenFOAM: The Open Source CFD Toolbox
   \\    /   O peration     | Website:  https://openfoam.org
    \\  /    A nd           | Version:  9
     \\/     M anipulation  |
\*---------------------------------------------------------------------------*/
FoamFile
{
    format      ascii;
    class       volVectorField;
    location    "1";
    object      U;
}
// * * * * * * * * * * * * * * * * * * * * * * * * * * * * * * * * * * * * * //

dimensions      [0 1 -1 0 0 0 0];

internalField   nonuniform List<vector> 
8800
(
(0.958079 -0.0734299 0)
(0.987675 -0.047835 0)
(0.978185 -0.0304584 0)
(0.973069 -0.0198109 0)
(0.9705 -0.0132567 0)
(0.969165 -0.00899839 0)
(0.968431 -0.00603967 0)
(0.96801 -0.00381666 0)
(0.967767 -0.00197664 0)
(0.967648 -0.0002571 0)
(0.967674 0.00143211 0)
(0.967845 0.00314502 0)
(0.968156 0.00509294 0)
(0.968706 0.00758796 0)
(0.969685 0.0110628 0)
(0.971516 0.0162666 0)
(0.975129 0.0245549 0)
(0.982269 0.0381986 0)
(0.990102 0.0607799 0)
(0.749435 0.0420981 0)
(0.586829 -0.00819716 0)
(1.05584 -0.019465 0)
(1.05579 -0.0213127 0)
(1.04578 -0.0209252 0)
(1.03797 -0.0188261 0)
(1.03264 -0.0156055 0)
(1.02915 -0.0120324 0)
(1.02709 -0.00851213 0)
(1.02594 -0.00517689 0)
(1.02534 -0.00194148 0)
(1.02522 0.00137011 0)
(1.02552 0.00460841 0)
(1.02629 0.00775107 0)
(1.02782 0.011044 0)
(1.03049 0.0144947 0)
(1.03486 0.0178242 0)
(1.04144 0.0204366 0)
(1.05039 0.0215891 0)
(1.06025 0.0209207 0)
(0.978768 0.0189871 0)
(0.524904 0.000543264 0)
(1.02149 -0.00504842 0)
(1.01919 -0.00812599 0)
(1.01536 -0.00985576 0)
(1.01109 -0.0102165 0)
(1.00741 -0.0095013 0)
(1.00442 -0.00785131 0)
(1.00221 -0.00563144 0)
(1.00072 -0.00309696 0)
(1.00022 -9.48153e-05 0)
(1.00032 0.00291176 0)
(1.00128 0.00565964 0)
(1.00292 0.00788519 0)
(1.00546 0.00966204 0)
(1.00879 0.0107321 0)
(1.01267 0.010781 0)
(1.01669 0.00951615 0)
(1.02017 0.00702847 0)
(1.01192 0.00297581 0)
(0.524537 -0.000507176 0)
(0.527068 -0.000109899 0)
(1.01951 -0.00184046 0)
(1.01939 -0.00342213 0)
(1.01804 -0.00481444 0)
(1.01604 -0.00574732 0)
(1.01387 -0.00588174 0)
(1.0117 -0.00527434 0)
(1.00978 -0.00396862 0)
(1.00832 -0.00203928 0)
(1.0077 0.000208244 0)
(1.00775 0.00252834 0)
(1.00882 0.00441003 0)
(1.01008 0.00589575 0)
(1.01209 0.00660696 0)
(1.01425 0.00658975 0)
(1.01626 0.00584411 0)
(1.01786 0.00454521 0)
(1.01897 0.00296334 0)
(1.00897 0.00133086 0)
(0.526395 0.000139579 0)
(0.524794 -8.01287e-05 0)
(1.01544 -0.00101946 0)
(1.01589 -0.00170511 0)
(1.0153 -0.00237521 0)
(1.01436 -0.00291548 0)
(1.01315 -0.00315093 0)
(1.01175 -0.00296504 0)
(1.01035 -0.00226167 0)
(1.00918 -0.00103484 0)
(1.00853 0.000548259 0)
(1.00852 0.00215144 0)
(1.00924 0.00333218 0)
(1.0102 0.0040054 0)
(1.01146 0.00418937 0)
(1.01268 0.00388722 0)
(1.01369 0.00324339 0)
(1.01442 0.00241867 0)
(1.01483 0.00154044 0)
(1.00457 0.000703616 0)
(0.52383 7.85014e-05 0)
(0.523777 -3.46898e-05 0)
(1.01402 -0.000466236 0)
(1.01465 -0.000798226 0)
(1.01433 -0.0011357 0)
(1.01381 -0.00141925 0)
(1.01309 -0.00156295 0)
(1.01219 -0.00146723 0)
(1.0112 -0.00104155 0)
(1.01027 -0.000244697 0)
(1.00962 0.000851975 0)
(1.00949 0.00192951 0)
(1.00989 0.00263841 0)
(1.01053 0.00291969 0)
(1.01125 0.0028506 0)
(1.01191 0.00250676 0)
(1.01242 0.00200508 0)
(1.01277 0.00144734 0)
(1.01293 0.000903434 0)
(1.00258 0.00041299 0)
(0.522691 4.97209e-05 0)
(0.523331 -1.30452e-05 0)
(1.01332 -0.000174832 0)
(1.01404 -0.000310028 0)
(1.01385 -0.000440442 0)
(1.01354 -0.000540507 0)
(1.01308 -0.000562721 0)
(1.01247 -0.000446805 0)
(1.01174 -0.000126844 0)
(1.01098 0.00043366 0)
(1.01035 0.00118833 0)
(1.01009 0.00188253 0)
(1.01021 0.00226411 0)
(1.01052 0.0023192 0)
(1.01089 0.00213755 0)
(1.01122 0.0018049 0)
(1.01147 0.00140425 0)
(1.01163 0.000993739 0)
(1.01169 0.000614517 0)
(1.00131 0.000279057 0)
(0.521937 3.38376e-05 0)
(0.523209 -4.68566e-07 0)
(1.01312 -1.00326e-05 0)
(1.01387 -1.23611e-05 0)
(1.01374 -4.05284e-06 0)
(1.01353 3.32983e-05 0)
(1.01321 0.0001232 0)
(1.01275 0.000301545 0)
(1.01216 0.000603772 0)
(1.0115 0.00104508 0)
(1.01085 0.00158076 0)
(1.01043 0.00200628 0)
(1.01031 0.00216456 0)
(1.01037 0.00206782 0)
(1.01049 0.00181694 0)
(1.01061 0.00148507 0)
(1.01071 0.00112951 0)
(1.01077 0.000792213 0)
(1.01077 0.000485286 0)
(1.00038 0.000222654 0)
(0.521387 2.6733e-05 0)
(0.523279 9.02181e-06 0)
(1.01325 0.000109768 0)
(1.01401 0.000200501 0)
(1.01391 0.000316296 0)
(1.01374 0.000463847 0)
(1.01347 0.000658388 0)
(1.01308 0.000915161 0)
(1.01256 0.00124748 0)
(1.0119 0.00164723 0)
(1.01118 0.00205481 0)
(1.01059 0.00229576 0)
(1.01026 0.00227737 0)
(1.0101 0.0020733 0)
(1.01004 0.00175977 0)
(1.01002 0.00140567 0)
(1.01002 0.00105568 0)
(1.01002 0.000732659 0)
(1.00998 0.0004479 0)
(0.999583 0.000203765 0)
(0.520918 2.48851e-05 0)
(0.523507 1.65043e-05 0)
(1.01363 0.000210013 0)
(1.0144 0.000384029 0)
(1.01431 0.000592719 0)
(1.01415 0.000842682 0)
(1.01389 0.0011403 0)
(1.01351 0.00149008 0)
(1.01297 0.00188572 0)
(1.01226 0.00229729 0)
(1.01141 0.00264208 0)
(1.01062 0.00275752 0)
(1.01007 0.00260933 0)
(1.00972 0.00229242 0)
(1.00951 0.0019002 0)
(1.00938 0.00149407 0)
(1.00931 0.00111052 0)
(1.00927 0.000765969 0)
(1.00921 0.000468886 0)
(0.998801 0.000213281 0)
(0.52046 2.62472e-05 0)
(0.523873 2.48795e-05 0)
(1.01425 0.000310057 0)
(1.01502 0.000565925 0)
(1.01492 0.000868661 0)
(1.01475 0.00122515 0)
(1.01447 0.00163672 0)
(1.01405 0.00209792 0)
(1.01345 0.00258769 0)
(1.01262 0.00305203 0)
(1.01158 0.00338033 0)
(1.01055 0.003404 0)
(1.00977 0.00313374 0)
(1.00923 0.00270185 0)
(1.00888 0.00221063 0)
(1.00866 0.00172336 0)
(1.00852 0.00127396 0)
(1.00844 0.000876313 0)
(1.00836 0.00053465 0)
(0.997946 0.000242847 0)
(0.519962 2.92236e-05 0)
(0.524389 3.31194e-05 0)
(1.01512 0.000421191 0)
(1.01588 0.000768054 0)
(1.01577 0.00117848 0)
(1.01557 0.00165566 0)
(1.01525 0.00220002 0)
(1.01475 0.00279811 0)
(1.01403 0.00341363 0)
(1.01302 0.00396792 0)
(1.01172 0.00431585 0)
(1.01039 0.00426788 0)
(1.00934 0.00387256 0)
(1.0086 0.00330323 0)
(1.0081 0.00268263 0)
(1.00778 0.0020816 0)
(1.00758 0.00153399 0)
(1.00746 0.00105481 0)
(1.00736 0.000642456 0)
(0.996939 0.000293067 0)
(0.519375 3.56752e-05 0)
(0.525077 4.41609e-05 0)
(1.01629 0.000553716 0)
(1.01703 0.00101005 0)
(1.0169 0.00154671 0)
(1.01665 0.00217125 0)
(1.01626 0.00287849 0)
(1.01565 0.00364839 0)
(1.01475 0.00442722 0)
(1.01349 0.00510968 0)
(1.01185 0.00550658 0)
(1.01013 0.00539362 0)
(1.00877 0.00485674 0)
(1.00779 0.00412053 0)
(1.00713 0.00333407 0)
(1.0067 0.00258046 0)
(1.00643 0.00189862 0)
(1.00626 0.00130355 0)
(1.00614 0.000793327 0)
(0.99571 0.000361552 0)
(0.518661 4.42161e-05 0)
(0.525975 5.70443e-05 0)
(1.0178 0.000718265 0)
(1.01853 0.00130901 0)
(1.01836 0.00200562 0)
(1.01805 0.00281184 0)
(1.01756 0.00372319 0)
(1.01679 0.00470886 0)
(1.01566 0.00569854 0)
(1.01407 0.00655145 0)
(1.01198 0.00702482 0)
(1.00978 0.00684409 0)
(1.00802 0.00613633 0)
(1.00676 0.00519019 0)
(1.0059 0.00419109 0)
(1.00533 0.00323937 0)
(1.00498 0.00238204 0)
(1.00477 0.00163379 0)
(1.00462 0.000994964 0)
(0.99418 0.000451836 0)
(0.517772 5.4578e-05 0)
(0.527138 7.38355e-05 0)
(1.01976 0.000926727 0)
(1.02047 0.00168875 0)
(1.02025 0.00258468 0)
(1.01986 0.00362246 0)
(1.01922 0.00479203 0)
(1.01824 0.00605391 0)
(1.0168 0.0073127 0)
(1.01478 0.00838512 0)
(1.01211 0.00896167 0)
(1.00931 0.00870169 0)
(1.00705 0.00778133 0)
(1.00544 0.00656872 0)
(1.00433 0.00529676 0)
(1.00361 0.00409019 0)
(1.00316 0.00300665 0)
(1.00289 0.00206231 0)
(1.0027 0.00125679 0)
(0.992249 0.000571377 0)
(0.516652 6.90751e-05 0)
(0.528639 9.54857e-05 0)
(1.02229 0.0011934 0)
(1.02296 0.00217396 0)
(1.02267 0.00332659 0)
(1.02217 0.0046597 0)
(1.02136 0.00615991 0)
(1.0201 0.00777279 0)
(1.01826 0.00937415 0)
(1.01567 0.0107266 0)
(1.01226 0.0114334 0)
(1.00869 0.0110723 0)
(1.00581 0.00988071 0)
(1.00375 0.00832919 0)
(1.00235 0.00671064 0)
(1.00142 0.00517969 0)
(1.00085 0.00380458 0)
(1.0005 0.00260916 0)
(1.00028 0.00158813 0)
(0.989814 0.00072263 0)
(0.51524 8.71662e-05 0)
(0.530576 0.000123188 0)
(1.02554 0.00153714 0)
(1.02616 0.00280015 0)
(1.02579 0.00428381 0)
(1.02515 0.0059969 0)
(1.02409 0.0079204 0)
(1.02248 0.009982 0)
(1.0201 0.0120184 0)
(1.01678 0.0137225 0)
(1.01243 0.0145874 0)
(1.00787 0.0140906 0)
(1.00422 0.0125512 0)
(1.00161 0.0105675 0)
(0.999825 0.0085065 0)
(0.998656 0.00656173 0)
(0.997922 0.00481841 0)
(0.997487 0.00330441 0)
(0.997208 0.00201058 0)
(0.986726 0.000915021 0)
(0.513452 0.000110913 0)
(0.533082 0.000159917 0)
(1.02972 0.00198618 0)
(1.03029 0.00361465 0)
(1.02981 0.0055256 0)
(1.02897 0.00772983 0)
(1.0276 0.0101991 0)
(1.0255 0.0128352 0)
(1.02243 0.0154217 0)
(1.01816 0.0175615 0)
(1.0126 0.0186105 0)
(1.00681 0.0179258 0)
(1.00218 0.015935 0)
(0.998874 0.0134001 0)
(0.99662 0.0107791 0)
(0.995143 0.00831052 0)
(0.994217 0.00610161 0)
(0.993667 0.0041824 0)
(0.993327 0.00254596 0)
(0.982824 0.00115744 0)
(0.511192 0.000140348 0)
(0.536331 0.000208455 0)
(1.03513 0.00257349 0)
(1.03563 0.00468126 0)
(1.03499 0.00715156 0)
(1.03388 0.00999417 0)
(1.03209 0.013167 0)
(1.02936 0.016536 0)
(1.02537 0.0198144 0)
(1.01987 0.0224867 0)
(1.01276 0.0237377 0)
(1.00541 0.022788 0)
(0.999559 0.0202138 0)
(0.99539 0.0169755 0)
(0.992548 0.0136448 0)
(0.990688 0.0105166 0)
(0.989521 0.00771893 0)
(0.988828 0.00528922 0)
(0.988409 0.00321881 0)
(0.977882 0.00146251 0)
(0.508334 0.000176737 0)
(0.540573 0.000273413 0)
(1.04216 0.0033536 0)
(1.04254 0.00609264 0)
(1.04169 0.00929763 0)
(1.04022 0.0129749 0)
(1.03786 0.0170605 0)
(1.03426 0.0213652 0)
(1.02907 0.0255049 0)
(1.02197 0.0288124 0)
(1.01288 0.0302643 0)
(1.00356 0.0289355 0)
(0.9962 0.0256045 0)
(0.990961 0.0214771 0)
(0.987391 0.017252 0)
(0.985052 0.0132913 0)
(0.983584 0.00975359 0)
(0.982714 0.00668483 0)
(0.982199 0.00406674 0)
(0.971638 0.00184792 0)
(0.504727 0.000222885 0)
(0.546149 0.000363135 0)
(1.05132 0.00440321 0)
(1.05155 0.00798921 0)
(1.0504 0.0121724 0)
(1.04842 0.0169504 0)
(1.04526 0.0222191 0)
(1.04049 0.0277112 0)
(1.03367 0.0329056 0)
(1.02448 0.0369414 0)
(1.01288 0.0385531 0)
(1.00114 0.03668 0)
(0.991904 0.0323717 0)
(0.985344 0.0271226 0)
(0.980869 0.0217806 0)
(0.977933 0.0167819 0)
(0.976087 0.0123156 0)
(0.97499 0.00843971 0)
(0.97435 0.00513462 0)
(0.963748 0.00233271 0)
(0.500175 0.000280895 0)
(0.553573 0.000489408 0)
(1.0634 0.00585195 0)
(1.06339 0.0105907 0)
(1.0618 0.016096 0)
(1.05907 0.0223384 0)
(1.05475 0.0291481 0)
(1.04834 0.0361281 0)
(1.03934 0.0425736 0)
(1.02742 0.0473886 0)
(1.01266 0.0490424 0)
(0.99793 0.0463831 0)
(0.986424 0.0408249 0)
(0.978248 0.0341837 0)
(0.972649 0.0274603 0)
(0.968956 0.0211708 0)
(0.966624 0.0155481 0)
(0.965235 0.0106608 0)
(0.964433 0.00648732 0)
(0.953781 0.00294547 0)
(0.494432 0.000354506 0)
(0.563642 0.000676722 0)
(1.07952 0.00792007 0)
(1.07913 0.0142769 0)
(1.07683 0.0216073 0)
(1.07295 0.0298232 0)
(1.06692 0.0386232 0)
(1.05815 0.0474206 0)
(1.04616 0.0552632 0)
(1.0307 0.0607926 0)
(1.01202 0.0622386 0)
(0.993697 0.0584546 0)
(0.979478 0.0513196 0)
(0.969345 0.042984 0)
(0.962349 0.0345864 0)
(0.957688 0.0267175 0)
(0.954715 0.0196539 0)
(0.952929 0.0134917 0)
(0.951903 0.00821722 0)
(0.941174 0.00373349 0)
(0.487167 0.000449841 0)
(0.577721 0.000979098 0)
(1.10147 0.0110643 0)
(1.1004 0.0197872 0)
(1.09687 0.0297094 0)
(1.09107 0.0405921 0)
(1.08234 0.0519035 0)
(1.07013 0.0627693 0)
(1.05405 0.0719662 0)
(1.03407 0.0779177 0)
(1.01064 0.0786929 0)
(0.988122 0.0733163 0)
(0.970752 0.0642371 0)
(0.958292 0.0539097 0)
(0.949557 0.0435541 0)
(0.943615 0.0338055 0)
(0.939739 0.0249785 0)
(0.937363 0.0172084 0)
(0.935996 0.0105069 0)
(0.925138 0.00478428 0)
(0.477906 0.000579185 0)
(0.598491 0.00155558 0)
(1.13226 0.0165549 0)
(1.12974 0.0289101 0)
(1.12375 0.0425349 0)
(1.11445 0.0568721 0)
(1.10133 0.0710314 0)
(1.08406 0.0838488 0)
(1.06251 0.0939219 0)
(1.03693 0.0995969 0)
(1.00798 0.0989415 0)
(0.980768 0.0913585 0)
(0.959886 0.0799519 0)
(0.944755 0.0673959 0)
(0.933893 0.0548984 0)
(0.926231 0.0430585 0)
(0.921 0.0321773 0)
(0.917631 0.0224137 0)
(0.915628 0.0138296 0)
(0.904494 0.00637299 0)
(0.465859 0.00078222 0)
(0.631505 0.00326732 0)
(1.17734 0.0292727 0)
(1.17066 0.0468178 0)
(1.15903 0.0648842 0)
(1.14316 0.0826885 0)
(1.12304 0.0990658 0)
(1.09867 0.112765 0)
(1.07021 0.122452 0)
(1.03811 0.126597 0)
(1.00313 0.123408 0)
(0.970973 0.112861 0)
(0.946434 0.0987534 0)
(0.928441 0.0838617 0)
(0.915137 0.0692687 0)
(0.905279 0.0554605 0)
(0.898041 0.0426175 0)
(0.89289 0.0308518 0)
(0.889439 0.0201065 0)
(0.877433 0.0102176 0)
(0.450201 0.0012832 0)
(0.681264 0.0199774 1.54678e-19)
(1.24199 0.0639268 1.37985e-19)
(1.22345 0.0838008 -4.71773e-20)
(1.20069 0.10375 0)
(1.17467 0.122527 -1.06307e-33)
(1.14523 0.138742 1.51721e-20)
(1.11229 0.151276 -2.51024e-20)
(1.07598 0.158953 0)
(1.03667 0.160322 4.68095e-34)
(0.995112 0.153691 -2.65084e-20)
(0.957652 0.139675 0)
(0.929142 0.122745 -2.94007e-20)
(0.907891 0.105707 -8.53173e-20)
(0.891608 0.0894569 -3.98692e-20)
(0.878845 0.0744841 -1.17558e-20)
(0.868613 0.0609143 -6.93418e-21)
(0.860257 0.049255 0)
(0.853265 0.0393716 4.85184e-21)
(0.838447 0.0311443 5.74463e-21)
(0.428795 0.0126127 1.03625e-19)
(0.715454 0.0611218 1.39033e-19)
(1.29826 0.127641 5.5396e-22)
(1.26969 0.142822 1.38138e-20)
(1.23752 0.159768 0)
(1.20268 0.17583 -5.76212e-20)
(1.16488 0.189556 -6.28174e-20)
(1.12392 0.199668 -2.62349e-20)
(1.07982 0.204809 -8.62728e-20)
(1.03287 0.203353 0)
(0.983757 0.193547 1.12744e-19)
(0.939499 0.176486 1.07885e-19)
(0.905523 0.1573 3.1102e-20)
(0.879797 0.138866 1.09649e-19)
(0.859604 0.122057 1.50819e-19)
(0.84319 0.107187 0)
(0.829424 0.0946316 2.09532e-19)
(0.817565 0.0844645 3.01062e-19)
(0.807109 0.0770463 3.35e-19)
(0.791032 0.0717415 -3.82991e-19)
(0.405286 0.0356224 -6.66873e-21)
(0.729192 0.104436 0)
(1.33401 0.204574 3.19827e-20)
(1.30157 0.214259 0)
(1.26421 0.225938 -9.34872e-20)
(1.22341 0.237327 0)
(1.17921 0.247044 -1.30436e-19)
(1.13161 0.253523 5.50151e-20)
(1.0807 0.255193 -1.79991e-19)
(1.02688 0.250222 -1.26383e-21)
(0.970861 0.236708 5.9173e-20)
(0.920605 0.216329 2.3134e-19)
(0.88214 0.194861 1.1751e-22)
(0.853115 0.175207 -7.8285e-20)
(0.830474 0.158024 -1.38191e-19)
(0.812324 0.143457 1.62755e-19)
(0.797462 0.131559 -2.87043e-19)
(0.785042 0.122271 -3.77756e-20)
(0.774479 0.115575 0)
(0.758647 0.110506 1.31715e-21)
(0.390407 0.0560764 0)
(0.739529 0.146504 5.56035e-19)
(1.35642 0.280799 -2.6009e-19)
(1.32183 0.286974 -1.67034e-19)
(1.28142 0.294757 4.85122e-20)
(1.23671 0.302218 -7.89585e-20)
(1.18781 0.307961 2.7625e-19)
(1.13484 0.310634 1.16084e-19)
(1.07807 0.308507 0)
(1.01806 0.299652 -3.12712e-19)
(0.955755 0.282013 0)
(0.900182 0.25787 -1.21876e-19)
(0.858073 0.233677 -1.4284e-19)
(0.826738 0.212294 -8.34376e-20)
(0.802724 0.194158 -9.84688e-20)
(0.783871 0.179142 0)
(0.768758 0.167012 0)
(0.756414 0.157623 -2.42104e-19)
(0.746091 0.150738 4.75965e-20)
(0.730638 0.145201 -2.81866e-20)
(0.376926 0.0741156 -3.24258e-20)
(0.747077 0.186996 -3.38517e-19)
(1.37089 0.355558 0)
(1.33468 0.359109 4.04079e-19)
(1.29194 0.36394 1.50934e-19)
(1.24421 0.368025 1.71486e-19)
(1.19155 0.370276 0)
(1.13409 0.369358 1.20294e-19)
(1.07221 0.363486 2.01881e-19)
(1.00662 0.35062 1.64047e-19)
(0.938558 0.328576 2.69532e-19)
(0.878184 0.300182 0)
(0.833006 0.272656 -3.03121e-19)
(0.799979 0.248876 -1.76599e-19)
(0.77517 0.229083 -1.02609e-19)
(0.756101 0.212914 6.1106e-19)
(0.741123 0.199969 7.19824e-20)
(0.729106 0.189844 3.41131e-19)
(0.719189 0.182402 -1.61867e-18)
(0.704248 0.175961 9.57131e-19)
(0.364156 0.0900267 -1.15365e-18)
(0.75292 0.226013 -3.03858e-19)
(1.37992 0.427935 6.94498e-20)
(1.34233 0.429661 -5.89988e-20)
(1.29766 0.432103 -2.02452e-19)
(1.2474 0.433469 -1.73768e-19)
(1.19153 0.432736 1.42604e-21)
(1.13015 0.428602 -1.28783e-19)
(1.06367 0.419204 2.12364e-19)
(0.992911 0.402396 -3.498e-19)
(0.91938 0.375778 0)
(0.854476 0.342671 -1.40539e-19)
(0.806539 0.311155 -4.01078e-22)
(0.772168 0.284311 -1.88433e-19)
(0.746901 0.262189 0)
(0.727911 0.244293 -1.29779e-19)
(0.713319 0.229974 -3.04936e-19)
(0.701796 0.218869 8.13324e-19)
(0.692446 0.210474 -8.03417e-19)
(0.678163 0.20291 1.13805e-18)
(0.351347 0.103925 -1.18259e-18)
(0.757331 0.263745 -3.17976e-21)
(1.38544 0.497811 -6.97304e-20)
(1.34639 0.498222 -2.41671e-19)
(1.29996 0.498746 1.03901e-19)
(1.24744 0.497884 -9.13903e-20)
(1.18867 0.494645 0)
(1.12374 0.487645 -1.31989e-19)
(1.05299 0.47504 -2.24851e-19)
(0.97731 0.454455 -1.84748e-19)
(0.898414 0.423217 0)
(0.828982 0.384988 -1.46887e-19)
(0.778352 0.348895 -1.70711e-19)
(0.742782 0.318313 1.99765e-19)
(0.717294 0.293204 -1.17932e-19)
(0.698592 0.273062 -5.46799e-19)
(0.684552 0.257022 3.22584e-19)
(0.673746 0.244406 9.56287e-20)
(0.665049 0.234967 0)
(0.65155 0.226231 -1.06627e-18)
(0.338275 0.115826 -3.86589e-20)
(0.761027 0.300397 -3.99764e-20)
(1.38836 0.565259 7.15391e-20)
(1.34794 0.564617 1.27744e-19)
(1.29984 0.563553 3.36085e-19)
(1.24519 0.56088 -3.79212e-19)
(1.18377 0.555502 3.28738e-19)
(1.11552 0.546031 2.81685e-19)
(1.04074 0.530577 -3.59231e-19)
(0.960212 0.506527 1.03027e-19)
(0.875891 0.470728 -6.51162e-19)
(0.801699 0.427097 -1.58776e-19)
(0.748201 0.385795 0)
(0.71145 0.35074 2.11467e-19)
(0.685843 0.322072 2.45502e-19)
(0.667616 0.299125 2.88908e-19)
(0.654335 0.280906 -3.39088e-19)
(0.644352 0.266638 -9.94305e-20)
(0.636516 0.255756 1.188e-19)
(0.623911 0.245663 0)
(0.325049 0.125873 -8.20646e-20)
(0.764174 0.335909 3.99335e-19)
(1.38954 0.630226 -2.91114e-19)
(1.34772 0.628744 -1.34071e-19)
(1.29798 0.626429 2.33423e-19)
(1.24133 0.622198 -1.96429e-19)
(1.17743 0.614953 -3.80391e-21)
(1.10608 0.603423 -3.0213e-19)
(1.0274 0.585489 -1.28351e-19)
(0.942125 0.558351 -3.16681e-19)
(0.852125 0.518265 2.14965e-22)
(0.772699 0.469048 -5.0177e-19)
(0.715924 0.421961 3.87602e-19)
(0.677825 0.381731 -2.23078e-19)
(0.652164 0.348773 2.58911e-19)
(0.634596 0.322469 0)
(0.622293 0.301632 -1.7635e-19)
(0.613356 0.285446 -1.80457e-21)
(0.606547 0.27296 -4.9241e-19)
(0.595055 0.261276 -7.35131e-20)
(0.311367 0.134003 0)
(0.766323 0.369936 0)
(1.38939 0.692771 -3.09226e-19)
(1.34621 0.690504 -2.7438e-19)
(1.29494 0.687146 -2.44154e-19)
(1.23639 0.681587 -2.15434e-19)
(1.17015 0.672864 0)
(1.09587 0.659563 -1.54257e-19)
(1.01348 0.639575 -1.22035e-21)
(0.923441 0.609864 6.75692e-19)
(0.827491 0.565896 -9.15075e-20)
(0.742089 0.511107 -3.5787e-19)
(0.681393 0.457577 2.0589e-19)
(0.641624 0.411295 9.23925e-22)
(0.615943 0.373217 2.72359e-19)
(0.599247 0.34292 1.58537e-19)
(0.58817 0.319139 -3.7262e-19)
(0.580551 0.300598 4.35306e-19)
(0.575003 0.286354 1.27293e-19)
(0.564883 0.272983 5.31528e-19)
(0.297169 0.140203 -1.41256e-18)
(0.76871 0.403493 8.12516e-20)
(1.38821 0.753033 -1.55027e-19)
(1.34377 0.750057 1.32796e-19)
(1.29102 0.745682 2.51411e-19)
(1.23071 0.738999 0)
(1.16229 0.729004 -1.86851e-19)
(1.0853 0.714296 4.99048e-19)
(0.999366 0.69267 2.88439e-19)
(0.904667 0.660861 0)
(0.80239 0.613641 -1.28373e-18)
(0.710167 0.553489 9.54955e-19)
(0.644518 0.493015 0)
(0.602517 0.439659 2.48133e-19)
(0.576745 0.39553 2.35799e-21)
(0.561196 0.360517 -4.92426e-19)
(0.55169 0.333296 1.94109e-19)
(0.545775 0.312118 0)
(0.54176 0.295935 6.60841e-19)
(0.533201 0.280956 0)
(0.282913 0.144817 -6.37012e-19)
(0.770741 0.435814 -8.442e-20)
(1.38632 0.81072 -1.54426e-19)
(1.34061 0.807202 1.43667e-19)
(1.28649 0.801973 0)
(1.22457 0.794258 -2.31622e-19)
(1.15413 0.783212 0)
(1.07466 0.767321 -5.21391e-19)
(0.985473 0.744521 -1.47503e-19)
(0.886149 0.711288 1.25332e-19)
(0.777321 0.661624 -6.34292e-19)
(0.677202 0.596694 1.0157e-19)
(0.605172 0.528972 0)
(0.559974 0.467336 -5.25262e-19)
(0.534007 0.415713 -3.28781e-21)
(0.520086 0.374893 0)
(0.512853 0.34357 -2.37084e-21)
(0.509085 0.319736 5.74718e-19)
(0.507025 0.301473 -5.40306e-19)
(0.500356 0.284897 1.59164e-19)
(0.268865 0.147781 0)
(0.772188 0.46672 0)
(1.38384 0.866188 -1.56702e-19)
(1.33688 0.862045 -1.42114e-19)
(1.28152 0.855962 -2.05225e-21)
(1.21814 0.847319 -1.16687e-19)
(1.14596 0.835292 -4.21051e-19)
(1.06425 0.818527 1.87604e-19)
(0.972074 0.795002 -1.62236e-19)
(0.868358 0.761022 5.43274e-19)
(0.752731 0.7099 -1.01713e-18)
(0.643703 0.641075 -2.07544e-21)
(0.56345 0.566021 -2.48213e-19)
(0.513491 0.494699 8.3346e-19)
(0.486986 0.433623 4.51368e-21)
(0.475372 0.38557 -3.49022e-19)
(0.471479 0.349545 -6.04023e-19)
(0.470936 0.322737 0)
(0.471383 0.302813 0)
(0.466984 0.28503 1.59072e-19)
(0.255828 0.149842 -9.05043e-20)
(0.773764 0.496559 -8.45952e-20)
(1.38075 0.919239 3.25764e-19)
(1.33274 0.914473 1.50746e-19)
(1.2762 0.907577 0)
(1.21152 0.8981 -1.92373e-21)
(1.13787 0.885234 -4.34824e-19)
(1.05417 0.867749 4.86848e-19)
(0.95939 0.843801 6.75325e-19)
(0.851691 0.809691 7.1904e-19)
(0.729299 0.758364 -8.43554e-19)
(0.610298 0.687147 -8.2422e-19)
(0.519479 0.605141 6.66792e-19)
(0.462303 0.522763 0)
(0.434256 0.449359 -1.59875e-19)
(0.426088 0.391408 -3.56931e-19)
(0.427708 0.349474 -4.04689e-19)
(0.432187 0.320132 -4.58675e-19)
(0.436244 0.299353 1.29951e-19)
(0.434596 0.281377 -8.00058e-20)
(0.245185 0.151955 -4.79791e-21)
(0.774675 0.52542 0)
(1.37718 0.969916 0)
(1.3282 0.964427 3.52623e-21)
(1.27063 0.95677 0)
(1.20484 0.946506 3.7897e-19)
(1.12992 0.93285 3.36792e-19)
(1.04467 0.914876 0)
(0.947608 0.890837 8.67652e-20)
(0.836318 0.857213 1.21909e-18)
(0.707452 0.806898 -1.9375e-18)
(0.577746 0.735172 0)
(0.473738 0.647636 -4.33882e-19)
(0.40563 0.552961 4.65852e-21)
(0.373752 0.463124 7.0384e-21)
(0.370252 0.390603 3.73439e-19)
(0.381301 0.340512 -2.48283e-22)
(0.394813 0.30933 -8.94677e-19)
(0.4048 0.290148 2.5105e-19)
(0.406645 0.274751 7.03687e-20)
(0.239562 0.155615 0)
(0.774968 0.552891 2.43558e-19)
(1.37315 1.01821 1.68477e-19)
(1.32333 1.01194 3.10038e-19)
(1.26496 1.00346 -5.76299e-19)
(1.19818 0.992422 6.53315e-19)
(1.12222 0.978087 0)
(1.03572 0.959747 3.20064e-19)
(0.936796 0.935862 -1.87346e-19)
(0.822485 0.903345 3.44561e-21)
(0.68773 0.855262 1.39789e-19)
(0.546953 0.785353 1.08849e-18)
(0.427216 0.694729 -1.55681e-19)
(0.342927 0.58774 -5.16322e-19)
(0.302121 0.476267 -1.76697e-19)
(0.303573 0.38054 1.82303e-19)
(0.331028 0.31652 4.76669e-22)
(0.362534 0.284317 2.01071e-19)
(0.384304 0.272387 -4.6505e-19)
(0.390889 0.266477 4.97992e-19)
(0.245055 0.164994 7.89345e-20)
(0.774475 0.579083 -8.07831e-20)
(1.36869 1.06409 8.62614e-20)
(1.31819 1.05698 7.22506e-21)
(1.25909 1.04768 -2.91413e-19)
(1.19159 1.03595 -1.31637e-19)
(1.11478 1.02097 -6.26618e-19)
(1.0273 1.00229 1.08337e-19)
(0.926999 0.978781 -7.9325e-19)
(0.81032 0.947806 -1.37317e-18)
(0.670439 0.903068 -1.17604e-18)
(0.519021 0.837524 0)
(0.381465 0.747636 -6.77146e-19)
(0.274363 0.630663 7.4371e-19)
(0.215012 0.492609 0)
(0.217356 0.358771 -3.91604e-19)
(0.271861 0.265786 1.76724e-19)
(0.342448 0.230754 -1.83935e-19)
(0.390194 0.23929 -1.72675e-19)
(0.405164 0.259488 -3.00348e-19)
(0.274621 0.187934 -2.23458e-19)
(0.774499 0.604409 8.1172e-20)
(1.36381 1.10757 -9.20434e-20)
(1.31274 1.09949 -2.34523e-19)
(1.25311 1.08934 -3.77409e-19)
(1.1851 1.07692 2.83076e-19)
(1.1077 1.06147 -3.87701e-19)
(1.01948 1.04251 3.49266e-19)
(0.918244 1.01946 -8.34936e-19)
(0.799795 0.990318 -8.19716e-19)
(0.655853 0.949879 1.24943e-18)
(0.49478 0.891162 2.43279e-18)
(0.338625 0.807048 0)
(0.201983 0.686098 0)
(0.10824 0.520526 -2.05517e-19)
(0.0952792 0.326877 0)
(0.187616 0.166194 3.19104e-19)
(0.345915 0.114484 2.72425e-19)
(0.463668 0.174073 0)
(0.491481 0.262493 0)
(0.352448 0.240727 1.01566e-19)
(0.773472 0.627854 -7.72092e-20)
(1.35856 1.14863 -7.70709e-20)
(1.30708 1.1396 -1.63786e-19)
(1.24708 1.12856 3.05342e-19)
(1.17863 1.11541 2.9243e-19)
(1.10084 1.09947 4.6792e-19)
(1.01217 1.08025 -4.90751e-19)
(0.910393 1.05784 1.18468e-21)
(0.790899 1.03078 -4.82882e-21)
(0.643987 0.995186 -4.3194e-21)
(0.475084 0.945494 1.26161e-18)
(0.301299 0.872629 0)
(0.130619 0.758153 7.85616e-19)
(-0.0183624 0.574665 4.76984e-19)
(-0.0885246 0.300087 8.77968e-19)
(0.0260712 -0.0187074 1.67141e-19)
(0.386176 -0.164859 3.06826e-20)
(0.721547 0.034266 -1.12284e-21)
(0.729509 0.321565 0)
(0.498684 0.370307 -8.70326e-20)
(0.773045 0.651043 1.47564e-19)
(1.35317 1.18732 0)
(1.30146 1.17742 -1.61133e-19)
(1.24106 1.16552 2.36331e-19)
(1.17216 1.15162 -2.96674e-19)
(1.09419 1.13504 -6.20723e-19)
(1.00545 1.11536 1.0201e-18)
(0.903521 1.0936 -6.35638e-20)
(0.783442 1.06867 0)
(0.634702 1.03839 -1.4073e-18)
(0.46022 0.999384 -2.78361e-18)
(0.271914 0.942963 1.06389e-19)
(0.0677683 0.848555 1.1308e-18)
(-0.154408 0.674727 0)
(-0.364244 0.330793 6.54005e-19)
(-0.39198 -0.293218 0)
(0.119021 -0.616108 0)
(0.998223 -0.0242857 3.79546e-19)
(1.15227 0.520183 0)
(0.842804 0.652865 -4.97993e-20)
(0.771779 0.672021 1.44806e-19)
(1.34741 1.22382 0)
(1.29586 1.21297 -2.42176e-19)
(1.23525 1.20034 0)
(1.16609 1.18554 1.47575e-19)
(1.08796 1.16847 0)
(0.999269 1.14859 6.16582e-20)
(0.89738 1.12725 1.17594e-19)
(0.777202 1.10443 1.03178e-19)
(0.627851 1.07977 -1.55957e-18)
(0.450142 1.05249 8.65018e-20)
(0.251847 1.01656 8.46814e-19)
(0.0212894 0.956211 1.11865e-18)
(-0.273456 0.840246 1.42673e-19)
(-0.703555 0.595003 5.6115e-19)
(-1.24688 0.312524 0)
(-1.10499 0.923262 -1.60346e-18)
(-0.16966 1.80439 1.12288e-18)
(0.139489 1.86971 -7.16561e-19)
(-0.167152 2.28987 2.82457e-19)
(0.77004 0.691824 -1.05194e-19)
(1.34114 1.25858 -2.36303e-19)
(1.28995 1.24675 0)
(1.22956 1.23344 7.17863e-21)
(1.16046 1.21789 -3.74058e-19)
(1.08216 1.2004 1.0615e-18)
(0.993788 1.18115 3.92143e-19)
(0.892094 1.1603 0)
(0.772481 1.13944 7.19372e-19)
(0.623581 1.12061 -8.54512e-20)
(0.445073 1.10662 0)
(0.242277 1.09504 0)
(-0.000493385 1.07964 1.01993e-18)
(-0.325899 1.05662 -4.40192e-19)
(-0.821299 1.05715 -6.32123e-19)
(-1.41894 1.3518 0)
(-1.64023 2.25406 -3.04833e-19)
(-1.07218 2.99614 4.31869e-19)
(-0.654814 3.35288 1.8454e-19)
(-0.430161 3.39496 1.35348e-19)
(0.768187 0.710283 6.24968e-20)
(1.33446 1.2911 2.73206e-19)
(1.2837 1.27853 -1.25793e-19)
(1.22333 1.2647 -1.59765e-19)
(1.15468 1.2489 0)
(1.07667 1.23113 7.22463e-19)
(0.989401 1.2118 5.91797e-19)
(0.88812 1.19204 -6.04754e-20)
(0.769269 1.17359 1.05695e-19)
(0.622021 1.1603 1.51001e-18)
(0.445743 1.15888 1.43739e-18)
(0.245354 1.17175 9.64984e-19)
(0.00766712 1.20157 1.02967e-18)
(-0.295325 1.26742 -1.0448e-18)
(-0.672784 1.42824 -9.51804e-19)
(-1.06706 1.82586 0)
(-1.22889 2.41549 0)
(-0.979592 2.91235 4.82798e-20)
(-0.700018 3.01954 0)
(-0.526808 3.07796 2.10298e-20)
(0.767253 0.73081 0)
(1.32736 1.321 0)
(1.27737 1.30809 0)
(1.21662 1.29365 -3.80926e-20)
(1.14776 1.27761 -3.19719e-19)
(1.07039 1.25999 5.07766e-19)
(0.98457 1.24141 4.00114e-19)
(0.884668 1.22266 -6.07428e-20)
(0.768344 1.20674 9.32078e-19)
(0.62481 1.19944 -1.21334e-20)
(0.454702 1.21003 2.8502e-18)
(0.264867 1.24425 -1.08311e-19)
(0.0469319 1.30951 1.25584e-19)
(-0.21158 1.43057 1.45452e-19)
(-0.47461 1.63686 1.17769e-21)
(-0.676439 1.98222 2.04087e-20)
(-0.737007 2.3712 -7.64706e-19)
(-0.661317 2.66222 -2.12165e-19)
(-0.513739 2.79457 6.87094e-20)
(-0.426011 2.87474 -8.19075e-20)
(0.645725 0.666538 -1.8684e-20)
(1.32097 1.34786 0)
(1.27101 1.33582 2.06823e-19)
(1.21098 1.32147 3.70024e-19)
(1.14182 1.30529 -5.87284e-19)
(1.06445 1.28728 -5.21196e-19)
(0.979941 1.26799 -4.37166e-19)
(0.881766 1.25048 7.70944e-19)
(0.768629 1.2378 -7.84571e-19)
(0.631238 1.23666 0)
(0.472924 1.25874 1.40571e-18)
(0.303824 1.31216 -7.76596e-19)
(0.123982 1.40317 0)
(-0.0810487 1.55563 1.42501e-19)
(-0.264566 1.77359 2.94922e-19)
(-0.393177 2.06742 -2.81274e-19)
(-0.450152 2.34617 2.93657e-19)
(-0.435346 2.5478 1.42256e-19)
(-0.357264 2.67024 1.22576e-19)
(-0.312571 2.76254 1.83528e-19)
(0.851629 0.84856 6.34669e-20)
(1.31478 1.38392 0)
(1.25984 1.37585 -1.80469e-19)
(1.19981 1.36291 -3.31409e-19)
(1.13116 1.34723 5.48461e-19)
(1.05451 1.32893 4.84972e-19)
(0.969371 1.31075 5.70154e-19)
(0.873352 1.295 5.9325e-20)
(0.763204 1.28606 8.00048e-19)
(0.630773 1.29302 1.37874e-18)
(0.483382 1.3305 8.3914e-20)
(0.336059 1.40919 7.01774e-19)
(0.193512 1.53045 1.16026e-19)
(0.0710607 1.70219 -1.3061e-19)
(-0.0173867 1.92552 -2.60414e-19)
(-0.0739363 2.17876 2.44547e-19)
(-0.124553 2.36935 -2.5723e-19)
(-0.140485 2.48461 -1.29599e-19)
(-0.126767 2.60309 -1.05717e-19)
(-0.191261 2.70612 -1.11813e-20)
(0.846618 0.847494 0)
(1.31031 1.4122 -2.6162e-20)
(1.25567 1.40609 2.93334e-20)
(1.19395 1.39291 3.11479e-20)
(1.12562 1.37585 3.33428e-19)
(1.04875 1.35687 -4.58284e-19)
(0.96372 1.33758 -3.57585e-19)
(0.866892 1.32098 5.62149e-20)
(0.756026 1.31165 -8.63856e-19)
(0.62683 1.32044 -1.61221e-20)
(0.486782 1.36455 -2.6483e-18)
(0.354059 1.45103 9.73781e-20)
(0.233735 1.58126 -1.10724e-19)
(0.144428 1.75655 -1.17457e-19)
(0.0909737 1.97263 1.58968e-20)
(0.0772076 2.19278 -8.4699e-21)
(0.0346782 2.37528 4.06021e-19)
(0.00681498 2.47103 1.94179e-19)
(-0.0016398 2.58848 -4.09336e-20)
(-0.0755091 2.68127 -6.23086e-20)
(0.815947 0.836187 -2.8852e-20)
(1.30655 1.44731 -1.56213e-19)
(1.24891 1.43743 8.04718e-20)
(1.1856 1.42146 1.17975e-19)
(1.11618 1.40272 0)
(1.04003 1.38331 -5.89256e-19)
(0.955105 1.36684 -4.98528e-19)
(0.861267 1.35373 5.30245e-20)
(0.756052 1.34898 -9.36512e-20)
(0.636212 1.36177 -1.32633e-18)
(0.511161 1.41244 -1.24853e-18)
(0.400351 1.5049 -8.33997e-19)
(0.309476 1.63955 -8.18537e-19)
(0.248776 1.8145 7.76208e-19)
(0.224042 2.01503 6.63019e-19)
(0.238617 2.21169 0)
(0.205768 2.40615 0)
(0.169846 2.52279 -4.111e-20)
(0.128002 2.6369 0)
(0.0346944 2.69586 -1.98626e-20)
(0.782936 0.832524 1.42912e-20)
(1.29797 1.48278 9.89358e-20)
(1.23945 1.46927 0)
(1.17617 1.45357 9.14031e-21)
(1.10696 1.43485 2.72867e-19)
(1.03139 1.41654 -8.12842e-19)
(0.948412 1.4013 -3.08407e-19)
(0.856016 1.38588 4.61993e-20)
(0.754013 1.37764 -6.84406e-19)
(0.641248 1.3893 7.2714e-20)
(0.530338 1.43873 0)
(0.441454 1.5307 0)
(0.381161 1.66126 -7.72425e-19)
(0.354029 1.8248 3.05058e-19)
(0.358806 2.00779 4.12443e-19)
(0.399965 2.1969 0)
(0.398534 2.40503 -7.00872e-20)