/*--------------------------------*- C++ -*----------------------------------*\
  =========                 |
  \\      /  F ield         | OpenFOAM: The Open Source CFD Toolbox
   \\    /   O peration     | Website:  https://openfoam.org
    \\  /    A nd           | Version:  9
     \\/     M anipulation  |
\*---------------------------------------------------------------------------*/
FoamFile
{
    format      ascii;
    class       volScalarField;
    location    "11";
    object      p;
}
// * * * * * * * * * * * * * * * * * * * * * * * * * * * * * * * * * * * * * //

dimensions      [0 2 -2 0 0 0 0];

internalField   nonuniform List<scalar> 
8800
(
0.434915
0.387192
0.348613
0.319729
0.299004
0.284332
0.273921
0.266616
0.261907
0.259826
0.260816
0.264624
0.270862
0.2798
0.292272
0.309763
0.334354
0.368156
0.410544
0.469236
0.26593
0.273614
0.281402
0.28481
0.283456
0.27859
0.272347
0.26648
0.261896
0.259068
0.258618
0.260802
0.264891
0.270428
0.2768
0.282726
0.286107
0.285227
0.279517
0.27064
0.244169
0.250408
0.254697
0.257911
0.260229
0.261098
0.26024
0.258352
0.25644
0.255443
0.25614
0.258121
0.26046
0.262188
0.262374
0.260788
0.258089
0.254381
0.249704
0.245898
0.237977
0.240725
0.24388
0.246708
0.248709
0.25015
0.251139
0.251479
0.251317
0.251236
0.251648
0.252326
0.252654
0.252223
0.251164
0.249606
0.247285
0.244196
0.24145
0.23996
0.232499
0.234004
0.236413
0.239176
0.241598
0.243428
0.244684
0.245573
0.246186
0.246605
0.246922
0.246988
0.24665
0.245898
0.244584
0.242596
0.240061
0.237379
0.235597
0.23483
0.2283
0.229095
0.231091
0.233488
0.235779
0.237921
0.239727
0.241067
0.241998
0.242642
0.242975
0.242878
0.242261
0.241046
0.239291
0.237244
0.234997
0.232732
0.231419
0.231111
0.226681
0.227082
0.228252
0.229766
0.231296
0.232729
0.234118
0.235462
0.23663
0.2375
0.237869
0.237677
0.237037
0.236119
0.235043
0.233743
0.232332
0.231001
0.230276
0.230138
0.225329
0.225536
0.22617
0.227079
0.228134
0.229445
0.230813
0.232109
0.23328
0.234239
0.234744
0.234698
0.234224
0.233407
0.232426
0.23156
0.230758
0.230056
0.229692
0.229621
0.223173
0.223287
0.223646
0.224231
0.224939
0.225665
0.226678
0.227818
0.228986
0.230051
0.230725
0.230893
0.230696
0.230336
0.229967
0.229521
0.2291
0.22874
0.228565
0.228523
0.220265
0.220324
0.220587
0.221058
0.221615
0.222443
0.223313
0.224338
0.225485
0.22666
0.227561
0.228019
0.228134
0.228014
0.227801
0.227602
0.227318
0.227078
0.226985
0.226965
0.217046
0.217081
0.217279
0.217671
0.218186
0.218853
0.219676
0.220708
0.221937
0.223297
0.224477
0.225234
0.225639
0.225818
0.225828
0.225739
0.225605
0.225491
0.225458
0.225447
0.213518
0.213543
0.213697
0.214015
0.214477
0.215106
0.215943
0.217033
0.2184
0.220016
0.221543
0.222645
0.223351
0.22377
0.223988
0.224077
0.224086
0.224075
0.224079
0.224071
0.209589
0.209617
0.209752
0.210041
0.210489
0.211137
0.212045
0.213276
0.214878
0.216854
0.21881
0.2203
0.221314
0.221982
0.222396
0.222638
0.22277
0.22284
0.222872
0.222863
0.205181
0.205203
0.205358
0.205658
0.206138
0.206858
0.207898
0.209346
0.211281
0.213726
0.216209
0.218155
0.219539
0.220479
0.221096
0.221485
0.221721
0.221855
0.221909
0.2219
0.200231
0.200256
0.200431
0.200777
0.201336
0.202187
0.203433
0.205195
0.207579
0.210632
0.213777
0.216287
0.218094
0.219335
0.220164
0.220702
0.221038
0.22123
0.221305
0.221295
0.194625
0.194656
0.194869
0.195289
0.195972
0.197015
0.198554
0.20074
0.203717
0.207551
0.211527
0.214718
0.217019
0.218618
0.219694
0.220397
0.220838
0.221091
0.22119
0.221177
0.188208
0.188246
0.188515
0.189042
0.189899
0.19121
0.193143
0.195893
0.19964
0.204469
0.209481
0.213503
0.216413
0.218439
0.219805
0.220699
0.221262
0.221585
0.22171
0.221695
0.180768
0.180818
0.181164
0.181837
0.182933
0.184605
0.187062
0.19055
0.195292
0.201383
0.207685
0.212734
0.216384
0.218926
0.220641
0.221765
0.222472
0.222876
0.223034
0.223015
0.17201
0.172076
0.172524
0.173402
0.17483
0.176997
0.180146
0.184588
0.19061
0.198297
0.206204
0.212515
0.217069
0.220239
0.222379
0.22378
0.22466
0.225161
0.225356
0.225333
0.161528
0.161615
0.162203
0.163359
0.165234
0.168039
0.172119
0.177856
0.185526
0.195227
0.20512
0.212974
0.21863
0.222566
0.225226
0.226966
0.228057
0.228674
0.228914
0.228885
0.148763
0.148882
0.149665
0.151211
0.153703
0.157416
0.162764
0.170169
0.179969
0.192201
0.204534
0.214262
0.221254
0.226124
0.229422
0.231585
0.23294
0.233704
0.233998
0.233956
0.132932
0.133102
0.134167
0.136282
0.139661
0.144628
0.151687
0.161343
0.173897
0.189281
0.204572
0.216549
0.22515
0.231154
0.235238
0.237933
0.239628
0.240575
0.240937
0.240881
0.112858
0.113105
0.11461
0.117607
0.122299
0.129087
0.138585
0.151269
0.167344
0.18659
0.205399
0.220026
0.230538
0.237915
0.242973
0.246345
0.248489
0.249688
0.250127
0.250054
0.0866405
0.0870204
0.0893029
0.093801
0.100597
0.110191
0.123181
0.139918
0.160436
0.184317
0.207206
0.224877
0.237616
0.246646
0.252923
0.257175
0.259929
0.261493
0.262068
0.261967
0.0510424
0.051734
0.0556183
0.0629313
0.073329
0.087319
0.105303
0.127402
0.153403
0.182685
0.21016
0.231224
0.246494
0.257485
0.265298
0.27074
0.274373
0.276475
0.277245
0.277109
-0.000166051
0.00191144
0.00988415
0.022916
0.0396454
0.0603879
0.0852737
0.114161
0.146632
0.181951
0.214374
0.239071
0.257107
0.270343
0.280054
0.287126
0.29211
0.295199
0.296374
0.29618
-0.0773682
-0.0667807
-0.0484736
-0.0251333
0.00113887
0.0308838
0.0641831
0.100854
0.140491
0.182406
0.220241
0.249015
0.270302
0.286335
0.298594
0.308106
0.315447
0.320561
0.322965
0.323254
-0.15957
-0.13617
-0.107109
-0.0734828
-0.0374629
0.00134819
0.0430682
0.08765
0.134813
0.184026
0.228282
0.26218
0.287693
0.307421
0.323071
0.335772
0.346131
0.355149
0.360084
0.360525
-0.222831
-0.197267
-0.159964
-0.118153
-0.0736867
-0.0266023
0.0230821
0.0752451
0.129605
0.185666
0.235739
0.274031
0.302898
0.325304
0.343115
0.357543
0.369234
0.378752
0.38331
0.383987
-0.273845
-0.246199
-0.204292
-0.156647
-0.105756
-0.0519504
0.00454882
0.0634414
0.124331
0.186625
0.241791
0.283586
0.314776
0.338677
0.357386
0.37232
0.38434
0.393734
0.398496
0.399177
-0.314903
-0.286712
-0.241468
-0.189519
-0.133767
-0.0746375
-0.0124785
0.052245
0.11893
0.186768
0.246384
0.2911
0.324054
0.348971
0.36821
0.38333
0.395323
0.404476
0.40936
0.410058
-0.34962
-0.321215
-0.27363
-0.218304
-0.158576
-0.0950116
-0.0280699
0.0417005
0.113572
0.186533
0.250275
0.297594
0.332037
0.357728
0.377275
0.392418
0.404301
0.413215
0.418093
0.418813
-0.380007
-0.3516
-0.302197
-0.24418
-0.181176
-0.113843
-0.0427066
0.0315996
0.108216
0.185899
0.253474
0.303246
0.339096
0.365516
0.385381
0.400591
0.412395
0.421151
0.425954
0.42669
-0.407497
-0.379014
-0.328286
-0.268007
-0.202237
-0.131663
-0.0568461
0.0215056
0.102459
0.184651
0.256058
0.308359
0.345699
0.372928
0.393175
0.408511
0.420287
0.428936
0.43363
0.434381
-0.432962
-0.40438
-0.352521
-0.290341
-0.222222
-0.148869
-0.0708301
0.0111982
0.0962524
0.182852
0.258144
0.313124
0.35211
0.380282
0.401014
0.416547
0.428346
0.436899
0.441462
0.442275
-0.457064
-0.428313
-0.375467
-0.311648
-0.241501
-0.165706
-0.0847783
0.000606035
0.0895038
0.18039
0.259684
0.317584
0.358461
0.387773
0.40913
0.424957
0.436837
0.445332
0.449754
0.450597
-0.480044
-0.451087
-0.397366
-0.332219
-0.260285
-0.182344
-0.0988593
-0.0104397
0.0820541
0.177166
0.260606
0.321716
0.364794
0.395496
0.417664
0.433906
0.44594
0.454424
0.458703
0.459515
-0.502258
-0.472982
-0.418514
-0.352227
-0.278751
-0.198949
-0.113198
-0.0220148
0.0738438
0.173074
0.260794
0.325427
0.371068
0.403477
0.426688
0.443507
0.455806
0.464331
0.468462
0.469198
-0.523742
-0.494178
-0.439157
-0.371748
-0.296948
-0.215532
-0.12779
-0.0341396
0.0648213
0.168012
0.260104
0.328566
0.377172
0.411669
0.43622
0.453819
0.466507
0.475126
0.479145
0.479719
-0.544578
-0.514693
-0.459178
-0.390815
-0.314888
-0.232089
-0.14263
-0.046809
0.0549683
0.161912
0.25838
0.330937
0.382923
0.419956
0.446206
0.464836
0.478059
0.486851
0.490792
0.49116
-0.564825
-0.534595
-0.478605
-0.409438
-0.332573
-0.248597
-0.157676
-0.0599761
0.044308
0.154737
0.255483
0.332318
0.38806
0.428105
0.456494
0.476482
0.490451
0.499484
0.503348
0.503496
-0.58453
-0.553958
-0.497441
-0.427598
-0.349932
-0.264995
-0.172856
-0.0735717
0.0328913
0.146463
0.251305
0.332461
0.392251
0.435798
0.466903
0.488652
0.503579
0.512904
0.516606
0.51656
-0.603518
-0.572629
-0.515632
-0.445245
-0.366919
-0.281197
-0.188091
-0.0875022
0.0207974
0.137133
0.245736
0.331121
0.395155
0.44271
0.477206
0.501295
0.517419
0.52698
0.530387
0.530102
-0.621781
-0.590581
-0.533185
-0.462314
-0.383467
-0.297136
-0.203278
-0.101674
0.00812826
0.126805
0.23875
0.328108
0.396407
0.448332
0.486959
0.514313
0.532071
0.541587
0.54432
0.543755
-0.639347
-0.607781
-0.550052
-0.478778
-0.399512
-0.312731
-0.218321
-0.115966
-0.005003
0.115578
0.230375
0.323296
0.395593
0.451954
0.495442
0.527449
0.54809
0.557219
0.557975
0.556943
-0.656083
-0.624249
-0.566186
-0.494568
-0.414999
-0.327906
-0.233128
-0.130259
-0.0184507
0.103589
0.22067
0.316634
0.392445
0.45279
0.501443
0.53975
0.566035
0.576402
0.57263
0.569544
-0.672078
-0.639937
-0.581598
-0.509709
-0.429959
-0.342706
-0.247757
-0.144615
-0.0322843
0.0907837
0.209541
0.307883
0.386707
0.450124
0.503244
0.548871
0.584558
0.60384
0.599217
0.575063
-0.687294
-0.6549
-0.596398
-0.524364
-0.444655
-0.357431
-0.262595
-0.159503
-0.0470477
0.0764956
0.196285
0.296208
0.377554
0.442808
0.497636
0.54883
0.592045
0.613448
0.60133
0.572856
-0.701615
-0.669294
-0.610425
-0.538292
-0.458811
-0.371754
-0.277413
-0.174591
-0.0624025
0.0610702
0.181148
0.281561
0.364589
0.430828
0.480946
0.530007
0.565919
0.573798
0.507961
0.462167
-0.714435
-0.683665
-0.623232
-0.550928
-0.47182
-0.385261
-0.291942
-0.189674
-0.078125
0.0446884
0.164179
0.264046
0.347301
0.415118
0.455468
0.482305
0.503234
0.463759
0.386288
0.33487
-0.766691
-0.69467
-0.634763
-0.563712
-0.485035
-0.399231
-0.306284
-0.205003
-0.094536
0.0269934
0.144993
0.243265
0.324187
0.396219
0.412541
0.412388
0.384097
0.315602
0.225384
0.175384
-0.722289
-0.70861
-0.650687
-0.581919
-0.503664
-0.418833
-0.327579
-0.227882
-0.119416
-0.000515611
0.113624
0.207511
0.2815
0.34008
0.346736
0.217536
0.0932638
0.00701516
-0.0822869
-0.0320266
-0.748889
-0.721959
-0.665033
-0.595736
-0.518291
-0.434221
-0.343407
-0.245061
-0.138305
-0.0217781
0.0886507
0.177437
0.244414
0.276282
0.21703
0.0365133
-0.130111
-0.247982
-0.377761
-0.292897
-0.768327
-0.737629
-0.680879
-0.611133
-0.534171
-0.450757
-0.36075
-0.263993
-0.159305
-0.045756
0.0603497
0.142831
0.200355
0.205553
0.0741044
-0.170237
-0.378854
-0.53881
-0.723917
-0.647493
-0.786388
-0.754228
-0.696628
-0.626531
-0.54984
-0.467099
-0.378294
-0.283227
-0.180785
-0.0706193
0.0305051
0.106306
0.151737
0.116694
-0.096395
-0.384806
-0.657622
-0.898378
-1.16949
-1.14112
-0.802849
-0.770751
-0.712564
-0.642254
-0.565858
-0.483885
-0.396439
-0.303161
-0.203209
-0.0965923
-0.00092903
0.0674281
0.0960243
0.011739
-0.263999
-0.587672
-0.921587
-1.22656
-1.58914
-1.96299
-0.818764
-0.787085
-0.728854
-0.658553
-0.582489
-0.501315
-0.415207
-0.323845
-0.226516
-0.12355
-0.0336759
0.0262574
0.0376171
-0.0994781
-0.415852
-0.751561
-1.09905
-1.39488
-1.52872
-1.74397
-0.834757
-0.803492
-0.745562
-0.675543
-0.599954
-0.519741
-0.435147
-0.345975
-0.251551
-0.152763
-0.0693481
-0.0192595
-0.0283929
-0.231473
-0.551574
-0.873412
-1.17569
-1.36727
-1.40053
-1.43718
-0.851059
-0.820203
-0.762629
-0.693089
-0.61816
-0.539126
-0.456394
-0.369849
-0.278861
-0.184759
-0.108252
-0.0692527
-0.109424
-0.366069
-0.672319
-0.966317
-1.23117
-1.35134
-1.36566
-1.36766
-0.867785
-0.837213
-0.77996
-0.710954
-0.636848
-0.55925
-0.478717
-0.39528
-0.308284
-0.219141
-0.149915
-0.123319
-0.198614
-0.494973
-0.789246
-1.04294
-1.2877
-1.36944
-1.34178
-1.32987
-0.88469
-0.85431
-0.79734
-0.728895
-0.655788
-0.579837
-0.501959
-0.4222
-0.339725
-0.25591
-0.194375
-0.182778
-0.299296
-0.625724
-0.911357
-1.07673
-1.2092
-1.26836
-1.28498
-1.28469
-0.901381
-0.871143
-0.814403
-0.74651
-0.674537
-0.600561
-0.525757
-0.450312
-0.373162
-0.294643
-0.24034
-0.245684
-0.412504
-0.77037
-1.05682
-1.10993
-1.06027
-1.22008
-1.29763
-1.31672
-0.917127
-0.887141
-0.830562
-0.763259
-0.692541
-0.620783
-0.549509
-0.479245
-0.408181
-0.33514
-0.286785
-0.306487
-0.535803
-0.965164
-1.32678
-1.4892
-1.39977
-1.44772
-1.48672
-1.5018
-0.931289
-0.901384
-0.845111
-0.778478
-0.709038
-0.639751
-0.572601
-0.508511
-0.444741
-0.378161
-0.332179
-0.363258
-0.652856
-1.21792
-1.73969
-2.14061
-1.95922
-1.82548
-1.78716
-1.78455
-0.942934
-0.913378
-0.857209
-0.791109
-0.72309
-0.656557
-0.594223
-0.537698
-0.48444
-0.425475
-0.375448
-0.41703
-0.761909
-1.36979
-1.93224
-2.27119
-2.19269
-2.07951
-2.04503
-2.04268
-0.950749
-0.921259
-0.865552
-0.800041
-0.733552
-0.670015
-0.61315
-0.566303
-0.52829
-0.482845
-0.430431
-0.485429
-0.833655
-1.3857
-1.93446
-2.27825
-2.39816
-2.3834
-2.30699
-2.29133
-0.95338
-0.924195
-0.868873
-0.804033
-0.739121
-0.678762
-0.628208
-0.593902
-0.580028
-0.567789
-0.529746
-0.575217
-0.891997
-1.4051
-1.98003
-2.51606
-2.77976
-2.76315
-2.58831
-2.4797
-0.949566
-0.92064
-0.865573
-0.801721
-0.738402
-0.68125
-0.6378
-0.619739
-0.643573
-0.712134
-0.743894
-0.752771
-0.918439
-1.27162
-1.70387
-2.2077
-2.43007
-2.35262
-2.12415
-1.98574
-0.938083
-0.90929
-0.855072
-0.791844
-0.730002
-0.675808
-0.639582
-0.640989
-0.722682
-0.958599
-1.17486
-1.02979
-0.878258
-0.823575
-0.780632
-0.77873
-0.731315
-0.579977
-0.395306
-0.302969
-0.917577
-0.888934
-0.835504
-0.773313
-0.712606
-0.660622
-0.630404
-0.651639
-0.809105
-1.31185
-1.83144
-1.3804
-0.809762
-0.197396
0.379862
0.822339
1.13851
1.33578
1.44887
1.48896
-0.887127
-0.858704
-0.806323
-0.745213
-0.685099
-0.633887
-0.607061
-0.638665
-0.852831
-1.59678
-2.48852
-1.63946
-0.669783
0.275213
1.05187
1.61935
1.98499
2.1369
2.19628
2.20974
-0.846261
-0.818373
-0.767071
-0.706935
-0.646666
-0.593473
-0.562027
-0.585284
-0.784417
-1.48958
-2.25775
-1.33892
-0.359408
0.552316
1.21117
1.63423
1.87787
1.9928
2.04371
2.05526
-0.794494
-0.767208
-0.71788
-0.658844
-0.598032
-0.540871
-0.497613
-0.493221
-0.601542
-0.979013
-1.20983
-0.571145
0.130138
0.743856
1.15132
1.40783
1.55958
1.64687
1.69351
1.69928
-0.730582
-0.705584
-0.659231
-0.602209
-0.541632
-0.481013
-0.425962
-0.388216
-0.392715
-0.456235
-0.384936
0.028136
0.466419
0.801686
1.02981
1.18299
1.28482
1.35279
1.38575
1.39106
-0.656951
-0.633979
-0.592462
-0.538729
-0.480012
-0.418142
-0.355095
-0.293476
-0.234173
-0.155931
0.00923655
0.270519
0.535747
0.730422
0.87069
0.972326
1.04587
1.0966
1.12517
1.13427
-0.57245
-0.556894
-0.518132
-0.469323
-0.414669
-0.35489
-0.289692
-0.217854
-0.13392
-0.0192605
0.14014
0.319109
0.480413
0.603538
0.695269
0.764344
0.816736
0.853973
0.874877
0.880263
-0.465034
-0.457216
-0.429737
-0.390328
-0.344389
-0.292077
-0.232243
-0.163016
-0.0792998
0.0308333
0.166452
0.301129
0.415668
0.503881
0.569322
0.616768
0.650871
0.675742
0.690755
0.694036
-0.35796
-0.354431
-0.33593
-0.306986
-0.27172
-0.22979
-0.179546
-0.118934
-0.0438152
0.0533652
0.165464
0.269547
0.35468
0.419242
0.466012
0.498881
0.52118
0.535083
0.541885
0.543479
-0.255577
-0.253796
-0.243243
-0.224319
-0.199674
-0.1686
-0.1294
-0.079785
-0.0164521
0.0653096
0.156311
0.237023
0.300838
0.34817
0.381526
0.403965
0.418224
0.426569
0.43044
0.430841
-0.162568
-0.162351
-0.157377
-0.14715
-0.132173
-0.111355
-0.0828794
-0.0445418
0.00622732
0.0724199
0.145131
0.207914
0.256163
0.290993
0.314867
0.330267
0.33945
0.344335
0.346262
0.346252
-0.0863566
-0.0869954
-0.0864739
-0.0829116
-0.0755511
-0.0627527
-0.0430608
-0.0146078
0.0247979
0.0771399
0.134281
0.182664
0.219039
0.244769
0.261794
0.272331
0.278318
0.2812
0.282172
0.282023
-0.0318335
-0.0327444
-0.0343453
-0.0349413
-0.0322482
-0.0250647
-0.0119054
0.00877031
0.0386422
0.0791277
0.12339
0.1605
0.187878
0.206758
0.219051
0.226479
0.23041
0.232096
0.232578
0.232399
0.00332014
0.00249375
0.000507434
-0.00105869
-0.000622899
0.00307955
0.0114909
0.0261748
0.0485233
0.0794887
0.113414
0.141576
0.16216
0.176238
0.185141
0.190239
0.192783
0.193717
0.193896
0.193722
0.0246764
0.024086
0.0224663
0.0209426
0.0208133
0.0230426
0.0286665
0.0389854
0.0553947
0.0787613
0.104622
0.126042
0.141456
0.15169
0.158
0.161536
0.163157
0.163595
0.163594
0.163446
0.0373201
0.0369363
0.0358481
0.0347319
0.0344973
0.0359256
0.0399383
0.0475299
0.0597069
0.0772171
0.0966683
0.112659
0.124057
0.131618
0.13622
0.13867
0.139681
0.139848
0.139774
0.139655
0.0448912
0.0446437
0.0439466
0.0432138
0.0430715
0.0440578
0.046857
0.0523389
0.0613712
0.0744957
0.0891181
0.101156
0.109696
0.115253
0.118539
0.120238
0.120886
0.12093
0.120841
0.120746
0.0492492
0.0490839
0.0486122
0.0481165
0.0480485
0.0488113
0.0509053
0.0549462
0.061616
0.0714042
0.0823538
0.0913102
0.0975993
0.101652
0.104023
0.105211
0.105621
0.105601
0.105512
0.105435
0.0512568
0.0511417
0.0507973
0.0504291
0.0503735
0.0509228
0.052457
0.0554551
0.0604223
0.0677104
0.0758622
0.082524
0.0871882
0.0901666
0.0918767
0.0927068
0.0929644
0.0929152
0.0928339
0.0927725
0.0514482
0.0513672
0.0511178
0.0508478
0.0508113
0.0512229
0.0523584
0.0545713
0.0582537
0.0636805
0.0697554
0.0746998
0.0781349
0.0803051
0.0815325
0.082108
0.0822628
0.0821989
0.0821266
0.0820776
0.0502794
0.0502208
0.0500411
0.0498454
0.0498221
0.0501305
0.0509763
0.0526226
0.055358
0.0593861
0.0638914
0.0675487
0.0700757
0.0716584
0.0725389
0.0729368
0.0730253
0.0729582
0.0728959
0.0728567
0.0481139
0.0480699
0.0479406
0.047801
0.0477889
0.0480213
0.04865
0.0498703
0.0518993
0.0548887
0.0582275
0.0609285
0.0627838
0.0639345
0.0645638
0.0648365
0.0648829
0.0648192
0.0647661
0.0647347
0.0452245
0.0451906
0.0450959
0.0449956
0.04499
0.0451651
0.0456326
0.0465381
0.0480409
0.0502544
0.0527216
0.0547101
0.0560677
0.0569018
0.0573499
0.0575354
0.0575555
0.0574974
0.0574526
0.0574275
0.0418031
0.0417767
0.0417054
0.0416311
0.041627
0.0417564
0.0421021
0.042771
0.0438817
0.0455164
0.0473361
0.0487957
0.0497854
0.0503875
0.0507047
0.050829
0.0508325
0.0507809
0.0507433
0.0507233
0.0379866
0.0379658
0.0379108
0.0378535
0.0378481
0.0379415
0.0381947
0.0386872
0.0395049
0.0407083
0.0420441
0.0431109
0.0438302
0.0442625
0.0444851
0.0445664
0.0445599
0.0445147
0.0444833
0.0444673
0.0338735
0.0338569
0.0338136
0.0337681
0.0337607
0.0338263
0.0340098
0.0343688
0.0349668
0.0358477
0.0368241
0.0376012
0.0381205
0.0384283
0.038582
0.0386325
0.0386198
0.0385805
0.0385545
0.0385419
0.0295385
0.0295252
0.0294906
0.0294534
0.029444
0.029488
0.0296182
0.029877
0.030311
0.0309512
0.0316596
0.0322206
0.0325925
0.032809
0.0329133
0.0329427
0.0329267
0.0328928
0.0328712
0.0328614
0.0250385
0.0250279
0.0249999
0.0249689
0.0249575
0.0249848
0.0250747
0.0252583
0.0255691
0.0260287
0.0265362
0.0269361
0.0271985
0.0273487
0.027418
0.0274334
0.0274164
0.0273875
0.0273697
0.027362
0.0204157
0.0204072
0.0203846
0.0203585
0.0203463
0.0203616
0.0204216
0.0205486
0.0207663
0.0210899
0.0214476
0.0217277
0.021909
0.0220099
0.0220529
0.0220579
0.0220405
0.0220159
0.0220013
0.0219953
0.0157019
0.0156952
0.0156771
0.0156554
0.0156429
0.0156493
0.015687
0.0157711
0.0159178
0.0161376
0.0163804
0.0165696
0.0166907
0.0167557
0.0167805
0.0167791
0.0167624
0.0167417
0.0167299
0.0167253
0.0109222
0.0109173
0.0109028
0.0108848
0.0108728
0.0108736
0.0108949
0.0109466
0.0110388
0.0111777
0.0113312
0.0114497
0.0115237
0.0115617
0.0115739
0.0115691
0.0115544
0.0115377
0.0115286
0.0115253
0.00609302
0.00608953
0.00607896
0.0060663
0.00605762
0.00605599
0.00606547
0.00609156
0.00613974
0.0062124
0.00629268
0.00635391
0.0063918
0.00641053
0.00641488
0.00640972
0.00639836
0.00638592
0.00637912
0.00637709
0.00122606
0.00122566
0.00122444
0.00121961
0.00121546
0.00121334
0.00121395
0.00121721
0.00122389
0.00123499
0.00124981
0.00126375
0.00127324
0.00127864
0.00128081
0.00128033
0.00127757
0.00127312
0.00126922
0.00126841
-0.833964
-0.578063
-0.292229
-0.0634775
0.121949
0.272161
0.400138
0.508499
0.55951
0.536695
-0.377199
-0.205586
-0.0285154
0.1229
0.251471
0.359729
0.448351
0.512174
0.545658
0.55637
-0.0712003
0.0410847
0.158264
0.262398
0.352346
0.427972
0.488209
0.532236
0.562726
0.579383
0.13912
0.215356
0.297268
0.370824
0.434955
0.489238
0.533444
0.568029
0.594878
0.612333
0.295732
0.350462
0.407934
0.462318
0.510292
0.551753
0.586718
0.615204
0.638075
0.655401
0.419369
0.459364
0.504199
0.546794
0.585301
0.619381
0.648747
0.672993
0.69247
0.70957
0.523386
0.556147
0.594996
0.631352
0.665009
0.695229
0.721402
0.742878
0.759479
0.776477
0.619158
0.650905
0.687942
0.722618
0.75451
0.783037
0.807444
0.827054
0.841186
0.85824
0.718927
0.753694
0.792182
0.827419
0.858874
0.886262
0.909198
0.9272
0.939615
0.957072
0.836666
0.875497
0.91521
0.950437
0.980681
1.00618
1.02716
1.04353
1.05536
1.07351
0.983255
1.02239
1.05919
1.09045
1.11666
1.13924
1.15869
1.17453
1.18722
1.20529
1.1594
1.19133
1.21788
1.24071
1.26102
1.28001
1.29798
1.31465
1.33015
1.34827
1.34864
1.36601
1.38127
1.39773
1.41383
1.4285
1.44182
1.45586
1.47352
1.49373
1.53063
1.54029
1.55196
1.56284
1.5722
1.58194
1.5929
1.60434
1.61574
1.63112
1.73818
1.74185
1.72695
1.71222
1.70607
1.7118
1.73031
1.76068
1.79289
1.81956
2.0445
1.90965
1.83312
1.79089
1.77345
1.77746
1.8049
1.86131
1.96396
2.18834
0.325494
0.32343
0.318941
0.310432
0.298373
0.286441
0.276419
0.268708
0.263223
0.259992
0.259482
0.261871
0.266573
0.273398
0.282423
0.293642
0.306024
0.316853
0.322898
0.325873
0.249749
0.255637
0.262049
0.266735
0.269401
0.269277
0.266761
0.263191
0.259868
0.257641
0.25731
0.259152
0.262357
0.266177
0.26957
0.271118
0.269894
0.266135
0.260772
0.254091
0.240856
0.243158
0.24681
0.250164
0.252597
0.254429
0.255497
0.25543
0.254532
0.253634
0.253604
0.25467
0.256059
0.25689
0.256574
0.255203
0.253191
0.250409
0.24676
0.24368
0.235236
0.236298
0.238439
0.241323
0.243819
0.245604
0.246865
0.247793
0.248369
0.248675
0.248968
0.249263
0.249299
0.24887
0.248011
0.246682
0.244651
0.241948
0.239342
0.237797
0.230041
0.230549
0.232168
0.234815
0.237455
0.239864
0.241767
0.243061
0.24392
0.244498
0.244916
0.24514
0.244956
0.244283
0.242959
0.240948
0.238536
0.235936
0.233707
0.232782
0.227309
0.227503
0.228532
0.230396
0.232333
0.234106
0.235781
0.237353
0.238663
0.239643
0.240225
0.240268
0.239784
0.238808
0.237522
0.236052
0.234326
0.23248
0.230966
0.230488
0.226069
0.226163
0.22672
0.227788
0.229007
0.230429
0.231812
0.233139
0.234347
0.235378
0.236069
0.236235
0.235908
0.235219
0.234291
0.233092
0.23202
0.230988
0.230193
0.229949
0.224378
0.22443
0.224723
0.225334
0.226118
0.226991
0.228119
0.229359
0.230605
0.231735
0.232565
0.232863
0.232668
0.232153
0.231476
0.230861
0.23026
0.229696
0.22931
0.229188
0.221774
0.221798
0.221978
0.222411
0.223017
0.223644
0.224435
0.225455
0.226563
0.227701
0.228684
0.229235
0.229364
0.229216
0.228968
0.22876
0.2284
0.22805
0.227832
0.227774
0.21869
0.218696
0.218819
0.21916
0.219659
0.220301
0.221102
0.222035
0.223146
0.224386
0.225572
0.226398
0.226809
0.226961
0.22691
0.226659
0.226538
0.226334
0.226218
0.226197
0.215326
0.215327
0.215418
0.215682
0.216101
0.216655
0.217377
0.218308
0.219477
0.220869
0.222328
0.223484
0.22421
0.224626
0.224832
0.224887
0.224857
0.224786
0.224752
0.224748
0.211609
0.211609
0.211684
0.211907
0.21228
0.212815
0.213559
0.214563
0.215874
0.217509
0.219325
0.220865
0.221927
0.222609
0.223026
0.223259
0.223371
0.223417
0.223444
0.22345
0.20745
0.207446
0.207532
0.207745
0.208113
0.208672
0.209483
0.21062
0.212156
0.214137
0.216408
0.218422
0.219847
0.220834
0.221477
0.221883
0.222126
0.222266
0.222339
0.222355
0.202781
0.202774
0.202867
0.203106
0.203517
0.204153
0.205096
0.206446
0.208305
0.210745
0.213598
0.216168
0.218046
0.219368
0.220257
0.220836
0.221202
0.221422
0.221533
0.221557
0.197522
0.197513
0.197625
0.197908
0.198397
0.19916
0.200303
0.201956
0.204252
0.207294
0.210886
0.214155
0.216579
0.218279
0.21944
0.220208
0.2207
0.220999
0.22115
0.221182
0.191534
0.191522
0.191662
0.192014
0.19262
0.193568
0.19499
0.197052
0.199929
0.20375
0.208275
0.212407
0.215471
0.21764
0.219124
0.22011
0.220745
0.221132
0.221326
0.221368
0.184634
0.184618
0.184797
0.185246
0.186016
0.187213
0.189011
0.191619
0.195254
0.200076
0.205777
0.210978
0.214832
0.217562
0.219434
0.22068
0.221484
0.221977
0.222222
0.222274
0.176572
0.176551
0.176786
0.177369
0.178357
0.179886
0.182182
0.185512
0.190138
0.19624
0.203419
0.209942
0.214765
0.218181
0.220522
0.222082
0.223094
0.223714
0.224023
0.224087
0.167006
0.166981
0.167293
0.168055
0.169338
0.171316
0.174301
0.178592
0.18448
0.192212
0.201241
0.209395
0.215405
0.219656
0.222569
0.224514
0.225779
0.22656
0.226948
0.227026
0.155465
0.155437
0.155862
0.156875
0.158564
0.161169
0.165056
0.170592
0.178165
0.187978
0.199308
0.20946
0.216914
0.222181
0.225792
0.228206
0.229782
0.230763
0.231251
0.231348
0.141272
0.141239
0.141834
0.143215
0.145479
0.148952
0.154089
0.161345
0.171104
0.183552
0.197717
0.210285
0.219479
0.225976
0.230438
0.233425
0.23538
0.236603
0.237212
0.237334
0.123431
0.123398
0.124268
0.126204
0.129326
0.13408
0.141009
0.150586
0.163206
0.178975
0.196587
0.212036
0.223301
0.23128
0.236784
0.240485
0.242914
0.24444
0.245213
0.245367
0.100447
0.100442
0.101772
0.104583
0.109044
0.115737
0.125243
0.138038
0.154425
0.174332
0.19606
0.214876
0.228565
0.238312
0.245101
0.249715
0.25277
0.254703
0.255693
0.255893
0.0698976
0.0699911
0.07216
0.0765062
0.08324
0.0930265
0.106383
0.123644
0.144888
0.16982
0.196326
0.218965
0.23542
0.24724
0.255606
0.261408
0.265329
0.267852
0.26914
0.269396
0.0272651
0.0276562
0.0317675
0.0393495
0.0503323
0.0652885
0.0843916
0.107678
0.134971
0.165779
0.197624
0.22444
0.243936
0.258114
0.268376
0.275719
0.280866
0.284324
0.286117
0.286444
-0.0356919
-0.0336223
-0.0239783
-0.00946012
0.00948896
0.0326845
0.0598303
0.0907777
0.125221
0.162584
0.200128
0.231308
0.254001
0.270733
0.283167
0.29243
0.299276
0.30411
0.306838
0.307186
-0.110875
-0.107437
-0.0896712
-0.0638317
-0.0343105
-0.00162022
0.0342914
0.0734221
0.115536
0.160161
0.204386
0.241097
0.268178
0.288654
0.304437
0.316777
0.326571
0.333882
0.33688
0.338305
-0.188095
-0.178037
-0.151577
-0.115631
-0.0766018
-0.0347862
0.0097076
0.0568716
0.106571
0.15843
0.209351
0.251561
0.282887
0.306885
0.32576
0.340895
0.353144
0.362725
0.368194
0.370467
-0.245979
-0.23476
-0.203346
-0.160962
-0.114591
-0.0652721
-0.0132837
0.0412224
0.0979797
0.156559
0.213582
0.260541
0.2952
0.321597
0.342178
0.358478
0.37149
0.381609
0.38777
0.39023
-0.292497
-0.28088
-0.246028
-0.199018
-0.147335
-0.0922412
-0.0341455
0.0266027
0.0895857
0.154217
0.21663
0.26753
0.304688
0.332623
0.354114
0.370927
0.384186
0.394405
0.400624
0.403046
-0.330523
-0.318992
-0.282202
-0.2317
-0.175862
-0.116164
-0.0530389
0.0130393
0.0814774
0.151514
0.218826
0.273271
0.312554
0.341701
0.363812
0.380863
0.394122
0.40427
0.410477
0.412797
-0.363334
-0.351948
-0.313704
-0.260506
-0.201298
-0.137743
-0.070348
0.000356015
0.0736863
0.148709
0.220567
0.278245
0.319423
0.349599
0.372195
0.389412
0.402666
0.412741
0.418958
0.421172
-0.392459
-0.381223
-0.34199
-0.286612
-0.224627
-0.157817
-0.086694
-0.0118619
0.0658986
0.145495
0.221649
0.282504
0.325588
0.356829
0.379958
0.397391
0.410691
0.42071
0.426953
0.429077
-0.419099
-0.407949
-0.367889
-0.310711
-0.246417
-0.176826
-0.102482
-0.0240181
0.057773
0.141741
0.222171
0.286291
0.331402
0.363817
0.387569
0.405285
0.418682
0.42869
0.434951
0.436979
-0.444018
-0.432916
-0.392129
-0.333404
-0.267144
-0.195176
-0.118015
-0.0362567
0.049285
0.137434
0.222121
0.289655
0.336998
0.370776
0.395293
0.413394
0.426945
0.436963
0.443248
0.445159
-0.467639
-0.456547
-0.415144
-0.355115
-0.287145
-0.213074
-0.133412
-0.0487063
0.0402805
0.132412
0.221395
0.292571
0.342428
0.377827
0.403304
0.421918
0.435704
0.445794
0.452045
0.453899
-0.490335
-0.479186
-0.437195
-0.376069
-0.306622
-0.230728
-0.148868
-0.0615257
0.0306432
0.126591
0.219883
0.294957
0.347669
0.385004
0.411689
0.430988
0.445114
0.455318
0.461548
0.463363
-0.5123
-0.501007
-0.458439
-0.396452
-0.325688
-0.248234
-0.16445
-0.0747428
0.0203287
0.119897
0.21747
0.296678
0.352615
0.392254
0.420454
0.440663
0.455276
0.465683
0.471888
0.473687
-0.533557
-0.522104
-0.479075
-0.416285
-0.34439
-0.265585
-0.180139
-0.0883653
0.00932179
0.112264
0.214055
0.297578
0.357095
0.399442
0.429525
0.450924
0.466223
0.476944
0.483158
0.484925
-0.55424
-0.542575
-0.499154
-0.435576
-0.362744
-0.282795
-0.195929
-0.102368
-0.00236342
0.103678
0.209529
0.297459
0.36088
0.406393
0.438805
0.461733
0.47794
0.489113
0.495386
0.49703
-0.574268
-0.562412
-0.518647
-0.45435
-0.380728
-0.299813
-0.211756
-0.116686
-0.0146792
0.0941393
0.203802
0.296117
0.363701
0.41288
0.448137
0.473014
0.49037
0.5021
0.508454
0.509937
-0.593695
-0.581614
-0.537448
-0.472576
-0.398288
-0.316582
-0.227549
-0.131233
-0.0275415
0.0836927
0.196847
0.293394
0.365263
0.418518
0.457188
0.484568
0.503442
0.515829
0.522199
0.523454
-0.612335
-0.60015
-0.555552
-0.490202
-0.41536
-0.333017
-0.243231
-0.14592
-0.0408511
0.0724292
0.188658
0.289177
0.365256
0.422765
0.465495
0.496183
0.517132
0.530214
0.53634
0.537243
-0.630315
-0.61794
-0.572967
-0.507201
-0.431909
-0.349069
-0.258704
-0.160649
-0.0544998
0.0604565
0.179277
0.283349
0.363409
0.425145
0.472442
0.507499
0.53159
0.545575
0.550743
0.550842
-0.647496
-0.634929
-0.589657
-0.523517
-0.447855
-0.364657
-0.273882
-0.175298
-0.0683666
0.0478708
0.168815
0.27587
0.359528
0.425242
0.477233
0.51774
0.546873
0.563097
0.566043
0.563536
-0.66393
-0.6512
-0.605571
-0.539104
-0.46316
-0.379718
-0.288684
-0.189782
-0.0823231
0.0348382
0.1574
0.266807
0.353522
0.422615
0.478712
0.525158
0.561831
0.584487
0.587363
0.575817
-0.679551
-0.66669
-0.6208
-0.554087
-0.47801
-0.394517
-0.303433
-0.2045
-0.0968377
0.0208252
0.144432
0.255516
0.3447
0.416545
0.475256
0.52689
0.572412
0.605836
0.613063
0.606221
-0.694351
-0.681256
-0.63537
-0.56843
-0.492402
-0.409061
-0.318104
-0.219447
-0.111924
0.00576245
0.129794
0.241795
0.332527
0.4065
0.46499
0.517168