/*--------------------------------*- C++ -*----------------------------------*\
  =========                 |
  \\      /  F ield         | OpenFOAM: The Open Source CFD Toolbox
   \\    /   O peration     | Website:  https://openfoam.org
    \\  /    A nd           | Version:  9
     \\/     M anipulation  |
\*---------------------------------------------------------------------------*/
FoamFile
{
    format      ascii;
    class       volVectorField;
    location    "41";
    object      U;
}
// * * * * * * * * * * * * * * * * * * * * * * * * * * * * * * * * * * * * * //

dimensions      [0 1 -1 0 0 0 0];

internalField   nonuniform List<vector> 
8800
(
(0.980152 -0.0915211 0)
(1.00234 -0.058724 0)
(0.999601 -0.032125 0)
(0.999993 -0.0165171 0)
(1.00006 -0.00883266 0)
(1.00006 -0.00508512 0)
(1.00004 -0.00299181 0)
(1.00001 -0.00169407 0)
(0.999996 -0.000798301 0)
(1.00006 -0.000101265 0)
(0.99999 0.000601957 0)
(1 0.0013525 0)
(1.00001 0.00238195 0)
(1.00002 0.00399358 0)
(1.00003 0.00674485 0)
(0.999985 0.0120475 0)
(0.999795 0.0230943 0)
(0.999035 0.0431583 0)
(1.00723 0.0790277 0)
(0.775023 0.0478396 0)
(0.358978 -0.014749 0)
(1.04649 -0.072492 0)
(1.08848 -0.0660287 0)
(1.04945 -0.0509222 0)
(1.02554 -0.0377014 0)
(1.01271 -0.0258927 0)
(1.00654 -0.0167062 0)
(1.00361 -0.0102382 0)
(1.00218 -0.00562049 0)
(1.00151 -0.00203639 0)
(1.00138 0.00117158 0)
(1.00173 0.00447574 0)
(1.0027 0.00836528 0)
(1.00473 0.0136874 0)
(1.00897 0.0213798 0)
(1.01794 0.0318808 0)
(1.03579 0.0446565 0)
(1.06741 0.0581015 0)
(1.09471 0.0699647 0)
(0.845647 0.0555052 0)
(0.217763 -0.00138159 0)
(1.07567 -0.0506655 0)
(1.09942 -0.0489513 0)
(1.06438 -0.040035 0)
(1.03987 -0.0325728 0)
(1.02376 -0.0253628 0)
(1.01399 -0.0181668 0)
(1.00849 -0.0115652 0)
(1.00564 -0.00582238 0)
(1.00447 -0.000546081 0)
(1.00479 0.00455429 0)
(1.00664 0.00983757 0)
(1.01056 0.0158149 0)
(1.01788 0.0225881 0)
(1.03049 0.0297098 0)
(1.05048 0.0368063 0)
(1.08004 0.0445865 0)
(1.10566 0.0519179 0)
(0.943305 0.0410015 0)
(0.217224 0.00140403 0)
(0.176606 -0.000629375 0)
(1.01936 -0.0354802 0)
(1.1057 -0.0414348 0)
(1.07796 -0.0364229 0)
(1.0524 -0.0303793 0)
(1.03516 -0.0245095 0)
(1.02332 -0.0187377 0)
(1.01552 -0.0127633 0)
(1.01092 -0.00669122 0)
(1.0089 -0.000470541 0)
(1.00943 0.00567757 0)
(1.01252 0.0115864 0)
(1.01847 0.0173594 0)
(1.02806 0.0229561 0)
(1.04227 0.0285317 0)
(1.06309 0.0343251 0)
(1.09387 0.0402145 0)
(1.09446 0.041749 0)
(0.830292 0.022763 0)
(0.175682 0.000647095 0)
(0.154679 -0.000463315 0)
(0.958089 -0.025712 0)
(1.10436 -0.0351524 0)
(1.08804 -0.0327107 0)
(1.06119 -0.0282069 0)
(1.04313 -0.0232588 0)
(1.03076 -0.0179895 0)
(1.02218 -0.0124724 0)
(1.01665 -0.00658673 0)
(1.01401 -0.000159541 0)
(1.01467 0.00627988 0)
(1.01847 0.0121461 0)
(1.02524 0.0174692 0)
(1.03537 0.0224958 0)
(1.05013 0.0273491 0)
(1.07207 0.0318092 0)
(1.10105 0.0356988 0)
(1.06977 0.0339239 0)
(0.742723 0.0144322 0)
(0.1533 0.000483212 0)
(0.139975 -0.000335338 0)
(0.901005 -0.0193512 0)
(1.09672 -0.0302707 0)
(1.09614 -0.0294105 0)
(1.06886 -0.0256441 0)
(1.05001 -0.0215847 0)
(1.03707 -0.0169213 0)
(1.02811 -0.0117012 0)
(1.02219 -0.00601136 0)
(1.01922 0.000313823 0)
(1.01987 0.00666586 0)
(1.02389 0.0123044 0)
(1.03092 0.0172942 0)
(1.04141 0.0217975 0)
(1.05681 0.0257747 0)
(1.07963 0.02931 0)
(1.1034 0.0320386 0)
(1.03809 0.0280602 0)
(0.67605 0.0102767 0)
(0.138037 0.000358911 0)
(0.129214 -0.000254017 0)
(0.851043 -0.0149564 0)
(1.0843 -0.0261792 0)
(1.10176 -0.0265471 0)
(1.07563 -0.0232445 0)
(1.05627 -0.0196214 0)
(1.04291 -0.0154742 0)
(1.03358 -0.0106614 0)
(1.02739 -0.00521177 0)
(1.02423 0.000911518 0)
(1.02478 0.00703393 0)
(1.02882 0.0123834 0)
(1.03601 0.0169492 0)
(1.04681 0.0208442 0)
(1.06259 0.0242175 0)
(1.08585 0.0272903 0)
(1.1027 0.0291409 0)
(1.00358 0.023482 0)
(0.624211 0.00786157 0)
(0.126597 0.000282564 0)
(0.121004 -0.000195533 0)
(0.808443 -0.011773 0)
(1.06888 -0.0225964 0)
(1.10521 -0.0239481 0)
(1.0818 -0.0211159 0)
(1.06198 -0.0177382 0)
(1.04835 -0.0138823 0)
(1.03877 -0.00939559 0)
(1.03233 -0.00423441 0)
(1.02894 0.00163104 0)
(1.02935 0.00746453 0)
(1.03338 0.0124491 0)
(1.04064 0.0165623 0)
(1.05156 0.0200033 0)
(1.06761 0.0229892 0)
(1.09127 0.0257468 0)
(1.09916 0.02669 0)
(0.968755 0.01986 0)
(0.582736 0.00627806 0)
(0.117561 0.000230145 0)
(0.114632 -0.000151112 0)
(0.772502 -0.00938782 0)
(1.05189 -0.0194333 0)
(1.10743 -0.0215326 0)
(1.08755 -0.0190985 0)
(1.06734 -0.0158928 0)
(1.05346 -0.0122195 0)
(1.04369 -0.00796512 0)
(1.03703 -0.0030801 0)
(1.03341 0.00249991 0)
(1.03364 0.0080093 0)
(1.03758 0.0125946 0)
(1.0448 0.0162909 0)
(1.05575 0.0193532 0)
(1.07205 0.0220096 0)
(1.09544 0.0244424 0)
(1.09288 0.0246079 0)
(0.934995 0.0170244 0)
(0.548642 0.00518033 0)
(0.110182 0.00019327 0)
(0.109649 -0.000116163 0)
(0.742303 -0.00753661 0)
(1.03441 -0.0166261 0)
(1.1087 -0.0192636 0)
(1.093 -0.0171518 0)
(1.07247 -0.0140567 0)
(1.05831 -0.0105033 0)
(1.04837 -0.00640634 0)
(1.04151 -0.00172874 0)
(1.03764 0.0035525 0)
(1.03764 0.00869163 0)
(1.04139 0.012894 0)
(1.0485 0.0162275 0)
(1.05947 0.0189444 0)
(1.07602 0.0212992 0)
(1.0984 0.0233945 0)
(1.08429 0.0228338 0)
(0.902948 0.0148207 0)
(0.519908 0.00439769 0)
(0.103978 0.000167268 0)
(0.105766 -8.71018e-05 0)
(0.717049 -0.00603903 0)
(1.01728 -0.014088 0)
(1.10906 -0.0170598 0)
(1.09828 -0.0152794 0)
(1.07749 -0.0122429 0)
(1.06304 -0.00874903 0)
(1.05289 -0.00474271 0)
(1.04581 -0.000218513 0)
(1.04166 0.00480922 0)
(1.04136 0.0096108 0)
(1.04486 0.0134457 0)
(1.05182 0.0164276 0)
(1.06279 0.0188304 0)
(1.07953 0.0209066 0)
(1.10004 0.0225979 0)
(1.07377 0.0213452 0)
(0.872795 0.0131264 0)
(0.495112 0.00383705 0)
(0.0986074 0.000149675 0)
(0.102793 -6.19628e-05 0)
(0.696118 -0.0047774 0)
(1.00114 -0.0117566 0)
(1.10869 -0.0148553 0)
(1.10333 -0.0132877 0)
(1.08243 -0.0102437 0)
(1.06767 -0.00678402 0)
(1.05726 -0.00286219 0)
(1.0499 0.00152925 0)
(1.04542 0.00633169 0)
(1.04474 0.0108063 0)
(1.04794 0.0142712 0)
(1.05471 0.0168851 0)
(1.06568 0.0189459 0)
(1.08262 0.0207351 0)
(1.10073 0.0220377 0)
(1.06171 0.0201409 0)
(0.844481 0.0118497 0)
(0.473219 0.00344153 0)
(0.0938227 0.000138731 0)
(0.100612 -3.8986e-05 0)
(0.679058 -0.00366346 0)
(0.986451 -0.00956227 0)
(1.10781 -0.0126131 0)
(1.10816 -0.0112079 0)
(1.08739 -0.0081527 0)
(1.07226 -0.00466248 0)
(1.06155 -0.000738441 0)
(1.05386 0.00357353 0)
(1.04895 0.00817288 0)
(1.04782 0.012317 0)
(1.05065 0.0153979 0)
(1.0572 0.0176278 0)
(1.06815 0.0193468 0)
(1.08523 0.0208634 0)
(1.10042 0.0217841 0)
(1.04834 0.01922 0)
(0.817783 0.010909 0)
(0.453442 0.00316993 0)
(0.0894311 0.000132783 0)
(0.099161 -1.62165e-05 0)
(0.665593 -0.00262154 0)
(0.973602 -0.00741454 0)
(1.10667 -0.0102296 0)
(1.11279 -0.0089304 0)
(1.0924 -0.00586549 0)
(1.07692 -0.00228827 0)
(1.06584 0.00169789 0)
(1.0577 0.00597258 0)
(1.05224 0.0104153 0)
(1.05057 0.0142561 0)
(1.05298 0.0169561 0)
(1.05928 0.0188191 0)
(1.07019 0.0201796 0)
(1.0873 0.0213393 0)
(1.09905 0.0217995 0)
(1.03381 0.0185501 0)
(0.792416 0.0102427 0)
(0.43517 0.00299656 0)
(0.0852798 0.000131261 0)
(0.0984246 8.20772e-06 0)
(0.655588 -0.00159492 0)
(0.962958 -0.00524521 0)
(1.10566 -0.00762477 0)
(1.11739 -0.00629711 0)
(1.09756 -0.00315341 0)
(1.08169 0.000534707 0)
(1.07018 0.00457922 0)
(1.06154 0.00885492 0)
(1.05545 0.0131524 0)
(1.05309 0.0166574 0)
(1.05494 0.0189178 0)
(1.06089 0.0202968 0)
(1.07172 0.0212115 0)
(1.08882 0.0220638 0)
(1.0965 0.0220706 0)
(1.01828 0.0181487 0)
(0.768089 0.00982319 0)
(0.417915 0.00290706 0)
(0.0812528 0.000133212 0)
(0.0984212 2.78508e-05 0)
(0.649035 -0.000550607 0)
(0.954817 -0.00299765 0)
(1.10514 -0.00478773 0)
(1.12217 -0.00335768 0)
(1.10291 -0.000109546 0)
(1.08655 0.00374804 0)
(1.07455 0.00795352 0)
(1.06528 0.0123056 0)
(1.05838 0.0164871 0)
(1.0552 0.0196591 0)
(1.0564 0.0214825 0)
(1.06193 0.0223943 0)
(1.07267 0.0228298 0)
(1.08962 0.0232229 0)
(1.09268 0.0226991 0)
(1.00174 0.0180465 0)
(0.744433 0.00962558 0)
(0.401239 0.00289521 0)
(0.0772297 0.000139259 0)
(0.099225 6.53234e-05 0)
(0.646069 0.000535228 0)
(0.949495 -0.000584524 0)
(1.10535 -0.00160323 0)
(1.12717 -3.74477e-06 0)
(1.10855 0.00339426 0)
(1.09173 0.00753985 0)
(1.0791 0.0119879 0)
(1.06904 0.0164562 0)
(1.06116 0.0205649 0)
(1.05697 0.0233994 0)
(1.05737 0.0246975 0)
(1.0624 0.025048 0)
(1.07296 0.0249728 0)
(1.08937 0.0248785 0)
(1.0874 0.0236748 0)
(0.984072 0.0182305 0)
(0.721089 0.00965124 0)
(0.384735 0.00295788 0)
(0.0731092 0.000148483 0)
(0.100998 9.7424e-05 0)
(0.647102 0.00175384 0)
(0.947411 0.00204826 0)
(1.10682 0.00206543 0)
(1.13264 0.00403393 0)
(1.11461 0.00773212 0)
(1.09724 0.0121915 0)
(1.08386 0.0168983 0)
(1.07283 0.0215345 0)
(1.06374 0.0255633 0)
(1.05832 0.0279875 0)
(1.05776 0.0287035 0)
(1.06216 0.0284086 0)
(1.07249 0.0277218 0)
(1.08804 0.0270324 0)
(1.08048 0.0250337 0)
(0.965245 0.0187742 0)
(0.697648 0.00990457 0)
(0.368003 0.00309555 0)
(0.0687903 0.000160988 0)
(0.103833 0.000144365 0)
(0.652481 0.00322448 0)
(0.949054 0.00503783 0)
(1.11013 0.00621296 0)
(1.1389 0.00866043 0)
(1.12122 0.0127928 0)
(1.10318 0.017674 0)
(1.08892 0.0227713 0)
(1.07674 0.0276652 0)
(1.06619 0.0316598 0)
(1.05924 0.0336623 0)
(1.05748 0.0337343 0)
(1.0611 0.0326976 0)
(1.07111 0.0313207 0)
(1.08545 0.0299009 0)
(1.07181 0.0269887 0)
(0.944947 0.0197437 0)
(0.673623 0.0104176 0)
(0.350616 0.00331328 0)
(0.064165 0.000176887 0)
(0.107999 0.000207321 0)
(0.662703 0.00495483 0)
(0.954758 0.00852947 0)
(1.1155 0.0110551 0)
(1.14602 0.0140883 0)
(1.12853 0.0187808 0)
(1.10972 0.0242903 0)
(1.09433 0.0299653 0)
(1.08064 0.0351988 0)
(1.06823 0.0391351 0)
(1.05949 0.0406075 0)
(1.05638 0.0399036 0)
(1.05903 0.0380602 0)
(1.0686 0.0359323 0)
(1.08132 0.0336831 0)
(1.06101 0.0295712 0)
(0.922843 0.0212127 0)
(0.648444 0.0112168 0)
(0.332111 0.0036108 0)
(0.0591433 0.000193604 0)
(0.113867 0.000292958 0)
(0.678391 0.00706945 0)
(0.965276 0.0127185 0)
(1.12357 0.0168123 0)
(1.15439 0.020715 0)
(1.1369 0.0262442 0)
(1.11718 0.0325255 0)
(1.10038 0.0388378 0)
(1.08485 0.0444301 0)
(1.07024 0.0482668 0)
(1.05928 0.0490988 0)
(1.05447 0.0474757 0)
(1.05596 0.0446932 0)
(1.0649 0.0416601 0)
(1.07557 0.0385028 0)
(1.04776 0.0330365 0)
(0.898475 0.0233695 0)
(0.621345 0.0123905 0)
(0.311916 0.00400716 0)
(0.0536387 0.000210852 0)
(0.121892 0.000410042 0)
(0.700345 0.00974659 0)
(0.981268 0.0177682 0)
(1.13507 0.0236727 0)
(1.16464 0.0287842 0)
(1.14656 0.0355088 0)
(1.12554 0.0427296 0)
(1.10686 0.0497819 0)
(1.08897 0.0557648 0)
(1.07163 0.0594036 0)
(1.05811 0.059401 0)
(1.05137 0.0566578 0)
(1.05158 0.0527657 0)
(1.05983 0.0487512 0)
(1.06803 0.0446557 0)
(1.03175 0.0376778 0)
(0.871117 0.0263879 0)
(0.591332 0.0140233 0)
(0.289314 0.00451584 0)
(0.0475523 0.000229239 0)
(0.132778 0.000581596 0)
(0.729693 0.013345 0)
(1.00368 0.0241484 0)
(1.15067 0.0321542 0)
(1.17743 0.0387304 0)
(1.15796 0.0470072 0)
(1.13509 0.0554272 0)
(1.11403 0.0633809 0)
(1.09325 0.0697168 0)
(1.07263 0.072934 0)
(1.05612 0.0718224 0)
(1.0471 0.0677295 0)
(1.04581 0.0625918 0)
(1.05329 0.0574862 0)
(1.05847 0.0523169 0)
(1.01247 0.0436259 0)
(0.839955 0.0303583 0)
(0.557221 0.0161033 0)
(0.26358 0.00511344 0)
(0.0407937 0.000247422 0)
(0.147714 0.000853065 0)
(0.768286 0.0185055 0)
(1.034 0.0326884 0)
(1.17116 0.0432662 0)
(1.19343 0.0518415 0)
(1.17149 0.0618977 0)
(1.14605 0.0717372 0)
(1.12175 0.0805425 0)
(1.09727 0.0869111 0)
(1.07276 0.0892746 0)
(1.05289 0.0866265 0)
(1.04143 0.080875 0)
(1.03853 0.0743236 0)
(1.04498 0.0679608 0)
(1.04649 0.0615363 0)
(0.989305 0.0509908 0)
(0.803976 0.0353094 0)
(0.517805 0.0185393 0)
(0.234187 0.00575005 0)
(0.0333371 0.000263402 0)
(0.168825 0.00132262 0)
(0.819177 0.0264347 0)
(1.07507 0.0450716 0)
(1.19769 0.058972 0)
(1.21324 0.0703071 0)
(1.18735 0.0821409 0)
(1.15818 0.0932133 0)
(1.12959 0.102311 0)
(1.10061 0.108014 0)
(1.07167 0.108784 0)
(1.04813 0.104003 0)
(1.03417 0.0962366 0)
(1.02961 0.0880254 0)
(1.03463 0.0803647 0)
(1.03157 0.0725508 0)
(0.961462 0.0597579 0)
(0.761899 0.0410217 0)
(0.472256 0.0211311 0)
(0.201123 0.00633627 0)
(0.0252899 0.000271135 0)
(0.199515 0.00237557 0)
(0.888047 0.0399626 0)
(1.12977 0.0651247 0)
(1.23079 0.0826778 0)
(1.23693 0.0969007 0)
(1.205 0.109991 0)
(1.17064 0.121275 0)
(1.13674 0.129535 0)
(1.10259 0.133533 0)
(1.06884 0.131789 0)
(1.04149 0.124213 0)
(1.025 0.114 0)
(1.01895 0.103867 0)
(1.02243 0.0947839 0)
(1.01334 0.0853358 0)
(0.927557 0.0696103 0)
(0.712523 0.047091 0)
(0.420809 0.0236869 0)
(0.165514 0.00682638 0)
(0.0170819 0.000263685 0)
(0.24132 0.008613 4.68241e-20)
(0.978935 0.0671919 4.08882e-20)
(1.19583 0.0990401 -1.42862e-20)
(1.26782 0.118004 0)
(1.26181 0.134957 -3.62904e-34)
(1.22229 0.147454 5.30013e-21)
(1.18187 0.157231 -9.52284e-21)
(1.14212 0.163388 0)
(1.10241 0.164753 1.94794e-34)
(1.06345 0.159883 -1.17171e-20)
(1.03192 0.14921 0)
(1.01249 0.136481 -1.38675e-20)
(1.00471 0.124384 -4.0869e-20)
(1.00659 0.114015 -1.93003e-20)
(0.989485 0.102873 -5.80444e-21)
(0.88344 0.0832315 -3.44869e-21)
(0.650352 0.0551197 0)
(0.360826 0.0270135 2.41763e-21)
(0.128228 0.00802458 2.8559e-21)
(0.0093407 0.000444229 5.1364e-20)
(0.270291 0.0240511 3.44502e-20)
(1.05356 0.109793 5.2095e-22)
(1.24961 0.147656 3.82572e-21)
(1.30138 0.16671 0)
(1.28365 0.183147 -1.85123e-20)
(1.2371 0.193548 -2.09985e-20)
(1.19067 0.201185 -9.63909e-21)
(1.14496 0.205104 -3.42575e-20)
(1.09931 0.203899 0)
(1.05446 0.196005 5.00555e-20)
(1.01779 0.182193 4.95899e-20)
(0.9945 0.166903 1.47448e-20)
(0.983667 0.152758 5.36594e-20)
(0.980529 0.139944 7.5284e-20)
(0.952975 0.125679 0)
(0.824356 0.101146 1.06315e-19)
(0.577652 0.0654234 1.52731e-19)
(0.299745 0.0315911 1.69748e-19)
(0.0945629 0.00942679 -1.94209e-19)
(0.00270736 0.000315683 -3.6437e-21)
(0.270973 0.039707 0)
(1.10031 0.165221 6.12285e-21)
(1.28569 0.207626 0)
(1.32726 0.226263 -2.42707e-20)
(1.30068 0.239261 0)
(1.24829 0.24599 -4.14116e-20)
(1.19632 0.250199 1.97526e-20)
(1.14492 0.250856 -6.91546e-20)
(1.09351 0.246213 -1.56576e-21)
(1.04283 0.234546 2.59986e-20)
(1.00101 0.217046 1.09434e-19)
(0.973951 0.198808 -2.99759e-22)
(0.960235 0.182766 -3.91046e-20)
(0.953202 0.168963 -7.1354e-20)
(0.917475 0.152291 8.46281e-20)
(0.780817 0.12149 -1.49877e-19)
(0.538287 0.0782783 -1.98345e-20)
(0.277227 0.0386352 0)
(0.0873203 0.0118761 3.40636e-24)
(0.00158213 0.000266724 0)
(0.264559 0.0533209 8.03374e-20)
(1.12522 0.223994 -3.92538e-20)
(1.30803 0.272391 -3.02338e-20)
(1.34413 0.291055 1.15047e-20)
(1.3115 0.300016 -1.93653e-20)
(1.25488 0.30255 8.69976e-20)
(1.19836 0.302721 4.13506e-20)
(1.14194 0.299438 0)
(1.08524 0.290816 -1.30705e-19)
(1.0291 0.275139 0)
(0.982421 0.254333 -5.76277e-20)
(0.951791 0.234001 -7.10997e-20)
(0.935701 0.216763 -4.27533e-20)
(0.925567 0.201455 -5.2005e-20)
(0.88399 0.180857 0)
(0.748599 0.144311 0)
(0.520658 0.0955312 -1.30104e-19)
(0.277782 0.0499028 2.57348e-20)
(0.0935309 0.0166448 -1.50688e-20)
(0.00342381 0.000646393 -1.76176e-20)
(0.257212 0.0654269 -3.2205e-20)
(1.13607 0.282619 0)
(1.32045 0.338188 6.19908e-20)
(1.35323 0.357283 3.24696e-20)
(1.31635 0.362495 4.48233e-20)
(1.25669 0.360857 0)
(1.19654 0.356864 4.05487e-20)
(1.13591 0.349404 7.68408e-20)
(1.07466 0.336675 6.70665e-20)
(1.0138 0.317207 1.23043e-19)
(0.96291 0.293718 0)
(0.929038 0.271852 -1.53738e-19)
(0.910047 0.253281 -9.26441e-20)
(0.895582 0.235313 -5.47513e-20)
(0.850056 0.210358 3.37238e-19)
(0.723023 0.169716 4.02526e-20)
(0.513672 0.116419 1.89595e-19)
(0.286543 0.0643659 -8.96387e-19)
(0.1057 0.0238473 5.31904e-19)
(0.00723431 0.00171611 -6.41052e-19)
(0.250307 0.0763972 -1.53997e-20)
(1.13802 0.339202 5.88283e-21)
(1.32566 0.403033 -6.68306e-21)
(1.35624 0.42302 -3.28934e-20)
(1.31624 0.424812 -3.78635e-20)
(1.25428 0.419167 1.76116e-21)
(1.19117 0.411072 -4.39551e-20)
(1.12707 0.399481 7.95595e-20)
(1.06207 0.382799 -1.44457e-19)
(0.997328 0.359813 0)
(0.942917 0.333709 -6.96831e-20)
(0.905946 0.309854 -1.61382e-21)
(0.883316 0.289035 -1.01476e-19)
(0.863909 0.267925 0)
(0.81664 0.239636 -7.31266e-20)
(0.70058 0.196733 -1.74196e-19)
(0.509465 0.139389 4.67225e-19)
(0.296362 0.0809487 -4.5941e-19)
(0.118024 0.0325589 6.53223e-19)
(0.0112202 0.00324396 -6.78764e-19)
(0.244577 0.0865779 -4.11717e-22)
(1.13438 0.393073 -1.91731e-21)
(1.3257 0.465885 -1.81523e-20)
(1.35459 0.487056 1.31151e-20)
(1.31224 0.485788 -1.90212e-20)
(1.24841 0.476347 0)
(1.18287 0.464314 -4.09009e-20)
(1.11594 0.44881 -8.32863e-20)
(1.04787 0.428431 -7.50806e-20)
(0.979899 0.402033 0)
(0.922393 0.372888 -7.23031e-20)
(0.882378 0.346179 -8.96034e-20)
(0.855925 0.322339 1.10105e-19)
(0.832261 0.298228 -6.69633e-20)
(0.785187 0.267862 -3.19137e-19)
(0.679413 0.223737 1.90892e-19)
(0.504093 0.162821 5.72691e-20)
(0.303367 0.0979723 0)
(0.127743 0.0417074 -6.31682e-19)
(0.0144763 0.00490824 -2.31624e-20)
(0.240065 0.0962663 1.01556e-21)
(1.1273 0.444037 -7.41015e-22)
(1.32189 0.526256 8.36748e-21)
(1.34939 0.548677 4.68195e-20)
(1.30521 0.544674 -6.9818e-20)
(1.23984 0.531716 8.26031e-20)
(1.1723 0.515999 8.79547e-20)
(1.10307 0.496896 -1.32968e-19)
(1.03242 0.473087 4.63307e-20)
(0.961618 0.443244 -3.02577e-19)
(0.90121 0.410548 -8.17882e-20)
(0.858257 0.380373 0)
(0.828331 0.353357 1.1934e-19)
(0.801425 0.326826 1.43003e-19)
(0.755364 0.295264 1.71471e-19)
(0.658509 0.249901 -2.07165e-19)
(0.496167 0.185648 -6.13545e-20)
(0.305653 0.11448 7.21657e-20)
(0.133549 0.0503908 0)
(0.0167428 0.00647975 -5.02156e-20)
(0.236651 0.105607 -3.38654e-20)
(1.1183 0.492221 1.48267e-20)
(1.31547 0.584396 -7.14156e-21)
(1.34154 0.607559 2.79623e-20)
(1.29584 0.601084 -3.11576e-20)
(1.22919 0.584864 -4.06198e-21)
(1.16005 0.565816 -9.5956e-20)
(1.08892 0.543489 -4.80646e-20)
(1.01605 0.516498 -1.30294e-19)
(0.942597 0.483154 2.44403e-22)
(0.87937 0.44657 -2.55734e-19)
(0.833669 0.412729 2.15935e-19)
(0.800899 0.382754 -1.3092e-19)
(0.771861 0.354358 1.57393e-19)
(0.727083 0.321912 0)
(0.636573 0.274936 -1.12025e-19)
(0.484973 0.207241 -5.17595e-22)
(0.302907 0.129325 -3.13734e-19)
(0.134505 0.0576298 -4.61303e-20)
(0.0177276 0.00768213 0)
(0.234202 0.114737 0)
(1.10829 0.537862 1.95709e-20)
(1.30691 0.639591 -3.65158e-21)
(1.3317 0.66356 -2.5034e-20)
(1.28473 0.654832 -3.97064e-20)
(1.21705 0.635632 0)
(1.14661 0.613631 -4.34261e-20)
(1.07389 0.588459 -1.16457e-21)
(0.99901 0.558533 2.78828e-19)
(0.922974 0.521689 -4.14634e-20)
(0.856961 0.481108 -1.84571e-19)
(0.808753 0.44364 1.12221e-19)
(0.773771 0.410901 -2.09756e-21)
(0.743422 0.380783 1.67125e-19)
(0.699749 0.347005 1.03332e-19)
(0.613998 0.297684 -2.41768e-19)
(0.470618 0.225957 2.8696e-19)
(0.29539 0.141349 8.49096e-20)
(0.131644 0.062754 3.50213e-19)
(0.0175958 0.00836896 -9.36702e-19)
(0.232684 0.123783 -1.57888e-20)
(1.09795 0.581142 1.86372e-20)
(1.29703 0.691876 -1.04657e-20)
(1.32032 0.716641 1.83694e-20)
(1.27234 0.705838 0)
(1.20385 0.683969 -3.7304e-20)
(1.13238 0.65941 1.45571e-19)
(1.0583 0.631749 1.04905e-19)
(0.981522 0.599125 0)
(0.902917 0.558875 -5.96532e-19)
(0.83414 0.514361 4.98463e-19)
(0.783616 0.473377 0)
(0.746884 0.437952 1.52521e-19)
(0.715665 0.405985 -2.06169e-21)
(0.67277 0.370388 -3.29275e-19)
(0.59039 0.318067 1.29083e-19)
(0.453182 0.241672 0)
(0.283614 0.150349 4.5749e-19)
(0.125212 0.0655847 0)
(0.0164024 0.00846719 -4.42403e-19)
(0.231921 0.132825 2.03165e-20)
(1.08774 0.622253 2.80144e-20)
(1.28607 0.741302 -9.45992e-21)
(1.30787 0.766806 0)
(1.25907 0.75412 -3.26157e-20)
(1.18998 0.729907 0)
(1.11772 0.703153 -1.43145e-19)
(1.04241 0.673333 -4.85391e-20)
(0.963806 0.638253 4.8974e-20)
(0.882632 0.594778 -2.94867e-19)
(0.811068 0.546499 5.14092e-20)
(0.758339 0.502089 0)
(0.720135 0.463935 -3.25347e-19)
(0.688265 0.429866 2.07828e-21)
(0.645802 0.391983 0)
(0.565618 0.33607 2.00112e-21)
(0.432778 0.254105 4.1704e-19)
(0.268006 0.155869 -3.95123e-19)
(0.115894 0.0662324 1.16407e-19)
(0.0145362 0.00813091 0)
(0.231617 0.14174 0)
(1.07797 0.661297 3.6294e-20)
(1.27443 0.787995 1.95978e-20)
(1.29469 0.814116 -2.41177e-21)
(1.24524 0.799739 -1.02853e-20)
(1.17576 0.773496 -8.2876e-20)
(1.10287 0.744887 5.35577e-20)
(1.02644 0.7132 -5.72719e-20)
(0.946073 0.675903 2.18442e-19)
(0.862309 0.629464 -4.70339e-19)
(0.787901 0.577646 -3.575e-21)
(0.732966 0.52986 -1.42482e-19)
(0.693414 0.488836 5.27315e-19)
(0.660985 0.452345 -2.43129e-21)
(0.618674 0.41163 -2.54832e-19)
(0.539661 0.351358 -4.56075e-19)
(0.409692 0.263086 0)
(0.249122 0.15792 0)
(0.104268 0.0646517 1.25799e-19)
(0.0122476 0.00735103 -7.36773e-20)
(0.231937 0.150664 3.14936e-20)
(1.06871 0.698158 -8.54456e-20)
(1.26239 0.832038 -2.13192e-20)
(1.28109 0.85864 0)
(1.23112 0.842772 -1.58932e-21)
(1.16143 0.814804 -7.47782e-20)
(1.08805 0.784638 1.28593e-19)
(1.01061 0.751343 2.24741e-19)
(0.92851 0.712083 2.83287e-19)
(0.842147 0.662986 -3.83565e-19)
(0.764799 0.607902 -4.26797e-19)
(0.707544 0.55678 3.80773e-19)
(0.666614 0.512673 0)
(0.633611 0.473346 -1.15574e-19)
(0.59119 0.429208 -2.75704e-19)
(0.51255 0.363776 -3.27323e-19)
(0.384286 0.268366 -3.88929e-19)
(0.227733 0.1565 1.15041e-19)
(0.0909174 0.0608526 -6.7662e-20)
(0.0095834 0.00614654 2.76138e-22)
(0.232384 0.159523 0)
(1.06013 0.733314 0)
(1.25021 0.873537 2.61467e-21)
(1.2673 0.900482 0)
(1.21693 0.883319 1.99283e-20)
(1.14718 0.8539 4.97298e-20)
(1.07344 0.822434 0)
(0.995059 0.787763 2.65217e-20)
(0.911292 0.746797 4.71562e-19)
(0.822335 0.695391 -8.81032e-19)
(0.741922 0.63736 0)
(0.682128 0.582955 -2.44614e-19)
(0.639644 0.535508 -2.94597e-21)
(0.605949 0.492852 -2.37519e-21)
(0.563206 0.444599 2.94272e-19)
(0.484312 0.373134 -3.56349e-22)
(0.35663 0.269847 -8.3686e-19)
(0.20429 0.151587 2.47425e-19)
(0.0769531 0.0553556 7.31236e-20)
(0.00688433 0.00470306 0)
(0.232912 0.168236 -1.3325e-19)
(1.05201 0.766832 -6.20472e-20)
(1.23802 0.912572 -7.42755e-20)
(1.25351 0.93976 5.19241e-20)
(1.20286 0.921462 1.90965e-20)
(1.13317 0.890848 0)
(1.05916 0.858305 7.67111e-20)
(0.979928 0.822467 -5.90257e-20)
(0.894567 0.780057 3.87712e-21)
(0.803049 0.726717 6.48459e-20)
(0.719426 0.666098 5.51095e-19)
(0.656793 0.608526 -8.57299e-20)
(0.612426 0.557485 -3.24151e-19)
(0.577787 0.51089 -1.34478e-19)
(0.534522 0.457616 1.60134e-19)
(0.455038 0.379115 -1.72113e-22)
(0.327723 0.267426 2.25564e-19)
(0.180126 0.143673 -5.32107e-19)
(0.0630575 0.0486181 6.29146e-19)
(0.00430659 0.00314806 9.17077e-20)
(0.233333 0.176685 5.17272e-20)
(1.04434 0.798802 -3.57918e-20)
(1.22598 0.949251 6.24591e-21)
(1.23987 0.976603 4.00443e-20)
(1.18904 0.957313 2.78732e-21)
(1.11951 0.925713 -8.49754e-20)
(1.04532 0.89228 2.19039e-20)
(0.965325 0.855459 -2.45401e-19)
(0.878466 0.811859 -5.17541e-19)
(0.784434 0.756969 -5.23584e-19)
(0.697472 0.694184 0)
(0.631631 0.633639 -3.7569e-19)
(0.584911 0.57882 4.66495e-19)
(0.548858 0.52755 0)
(0.504832 0.468012 -3.42582e-19)
(0.424777 0.381212 2.05126e-19)
(0.298254 0.2608 -2.42279e-19)
(0.156467 0.133123 -2.86402e-19)
(0.0501348 0.0412036 -5.06718e-19)
(0.00202179 0.00162183 -3.95045e-19)
(0.234087 0.185003 -5.95764e-20)
(1.03699 0.829204 3.83249e-20)
(1.21417 0.983656 8.59069e-20)
(1.2265 1.0111 6.25764e-20)
(1.17559 0.990964 -2.24818e-21)
(1.1063 0.958567 -4.38889e-20)
(1.032 0.924392 7.31155e-20)
(0.951333 0.886766 -2.51156e-19)
(0.863078 0.84222 -3.05762e-19)
(0.76662 0.786159 5.46535e-19)
(0.676209 0.721667 1.20701e-18)
(0.606773 0.658448 0)
(0.557094 0.599775 0)
(0.518852 0.543061 -1.54724e-19)
(0.473574 0.475558 0)
(0.393312 0.378537 4.41468e-19)
(0.269206 0.249142 5.21481e-19)
(0.135168 0.120052 0)
(0.0394543 0.0337174 0)
(0.000188145 0.00031602 4.24564e-19)
(0.234494 0.192884 6.89772e-20)
(1.02997 0.85803 5.55185e-20)
(1.20267 1.01592 6.30795e-20)
(1.21348 1.04339 -6.53947e-20)
(1.16257 1.02252 -9.97761e-21)
(1.09359 0.989471 4.23848e-20)
(1.01926 0.954681 -9.95908e-20)
(0.938016 0.9164 -2.74136e-23)
(0.848489 0.87114 -5.02905e-21)
(0.749708 0.814277 -5.31961e-21)
(0.655798 0.748574 6.20856e-19)
(0.582388 0.683079 0)
(0.529058 0.620647 4.70694e-19)
(0.487485 0.557818 3.29538e-19)
(0.439861 0.480324 7.99425e-19)
(0.359767 0.369967 2.37506e-19)
(0.241378 0.230312 -2.81185e-19)
(0.119845 0.102522 -1.65083e-19)
(0.0357578 0.0254543 0)
(0.000317992 -0.000203567 4.56208e-19)
(0.235201 0.200772 -1.58067e-19)
(1.02324 0.885398 0)
(1.19149 1.0461 7.70084e-20)
(1.20087 1.07356 -5.75295e-20)
(1.15006 1.05206 2.23637e-20)
(1.08142 1.01849 -4.0342e-20)
(1.00714 0.983187 1.90362e-19)
(0.925413 0.944388 -2.08666e-20)
(0.834744 0.898625 0)
(0.73378 0.841295 -6.00704e-19)
(0.636391 0.774898 -1.34638e-18)
(0.558681 0.707642 5.51272e-20)
(0.501 0.641721 6.47049e-19)
(0.454629 0.572381 0)
(0.402596 0.482995 5.38882e-19)
(0.321852 0.354946 0)
(0.212798 0.200098 0)
(0.113817 0.0688888 -1.78902e-19)
(0.058645 0.00531982 0)
(0.0270292 0.01097 1.22272e-19)
(0.235531 0.208061 -1.78838e-19)
(1.01676 0.911591 0)
(1.18063 1.07442 1.30397e-19)
(1.18863 1.10186 0)
(1.13802 1.07986 -1.64404e-20)
(1.06973 1.04591 0)
(0.99559 1.01021 8.97516e-21)
(0.91344 0.971063 3.41845e-20)
(0.821739 0.925038 3.81147e-20)
(0.718695 0.867598 -6.57458e-19)
(0.617844 0.801072 4.03066e-20)
(0.535482 0.732725 4.4294e-19)
(0.47264 0.663684 6.30289e-19)
(0.419598 0.587628 8.51035e-20)
(0.359959 0.485243 4.21847e-19)
(0.275036 0.335018 0)
(0.172119 0.156801 5.944e-19)
(0.0887544 0.0115309 -3.4824e-19)
(0.0434949 0.0440795 4.03342e-19)
(-0.0691961 0.430971 -4.75575e-19)
(0.235841 0.21515 1.49388e-19)
(1.01027 0.936413 2.27588e-19)
(1.17001 1.10118 0)
(1.17664 1.12872 5.18883e-21)
(1.12627 1.10647 5.37697e-20)
(1.05829 1.07239 3.16614e-20)
(0.984306 1.03654 6.40923e-20)
(0.901709 0.997364 0)
(0.808965 0.951469 2.51538e-19)
(0.703803 0.894481 -3.41917e-20)
(0.599264 0.828541 0)
(0.51164 0.760061 0)
(0.442447 0.688275 5.62676e-19)
(0.380603 0.60493 -2.62756e-19)
(0.30896 0.489677 -4.26099e-19)
(0.214467 0.315288 0)
(0.0999947 0.147959 2.99499e-19)
(0.00619185 0.436904 -3.46889e-19)
(0.0351647 1.8788 -1.89987e-19)
(0.0650196 2.80535 -2.4283e-19)
(0.235962 0.221396 -1.13758e-19)
(1.00395 0.960043 -2.94879e-19)
(1.15964 1.12638 7.91912e-20)
(1.16488 1.15401 6.18573e-20)
(1.11484 1.13167 0)
(1.04716 1.09764 1.029e-20)
(0.973481 1.06186 8.45952e-20)
(0.890405 1.02285 -1.63574e-20)
(0.796686 0.977399 3.74712e-20)
(0.689479 0.92133 6.24267e-19)
(0.58125 0.856642 6.76506e-19)
(0.488128 0.789241 4.92617e-19)
(0.411426 0.71531 5.63817e-19)
(0.339487 0.623054 -6.13672e-19)
(0.255562 0.499257 -6.41114e-19)
(0.141534 0.344866 0)
(0.0494687 0.827618 0)
(0.105748 2.54409 1.65231e-19)
(0.106797 3.19633 0)
(0.109798 3.38601 3.95997e-19)
(0.238637 0.22709 0)
(0.998385 0.982666 0)
(1.1493 1.14987 0)
(1.15315 1.17754 1.94325e-20)
(1.10344 1.15522 5.15711e-20)
(1.0361 1.12152 -6.49493e-21)
(0.96301 1.08605 5.31081e-20)
(0.879483 1.04742 -1.58495e-20)
(0.784869 1.00269 3.11587e-19)
(0.675759 0.948007 -9.68341e-21)
(0.56396 0.885273 1.33221e-18)
(0.465322 0.820115 -5.66208e-20)
(0.379947 0.745686 6.80397e-20)
(0.298719 0.639408 8.83962e-20)
(0.193278 0.517525 -2.68955e-21)
(0.108785 0.960189 1.79417e-21)
(0.146357 2.70431 -8.61013e-19)
(0.156343 3.28894 -3.2507e-19)
(0.144096 3.42585 1.68492e-19)
(0.130111 3.44856 -1.87361e-19)
(0.156739 0.183752 6.84466e-20)
(0.987604 1.00702 0)
(1.13866 1.17188 -1.64133e-19)
(1.14199 1.19977 -1.72064e-19)
(1.09289 1.17793 1.3387e-19)
(1.02606 1.14469 1.23446e-20)
(0.952812 1.10922 -5.27894e-20)
(0.869056 1.07119 1.71998e-19)
(0.773704 1.02748 -2.53809e-19)
(0.66295 0.97464 0)
(0.547802 0.914623 6.52509e-19)
(0.443829 0.852553 -3.99903e-19)
(0.348509 0.782412 0)
(0.256234 0.658277 8.18302e-20)
(0.159523 0.796963 1.96072e-19)
(0.161325 2.46841 -2.32678e-19)
(0.22296 3.32218 2.6196e-19)
(0.201186 3.44078 1.41184e-19)
(0.166908 3.46257 1.59825e-19)
(0.144176 3.47294 2.5313e-19)
(0.281925 0.265894 -1.24201e-19)
(0.972633 1.01709 0)
(1.1202 1.19681 1.80658e-19)
(1.1271 1.2311 1.95341e-19)
(1.07603 1.21106 -1.56415e-19)
(1.00886 1.17867 -3.71069e-20)
(0.934903 1.14485 4.18984e-20)
(0.850592 1.10791 1.34913e-20)
(0.753888 1.06608 2.39906e-19)
(0.640395 1.01668 5.33775e-19)
(0.520182 0.962401 3.66483e-20)
(0.407535 0.907034 3.53652e-19)
(0.293186 0.840747 6.32181e-20)
(0.219167 0.966168 -8.01632e-20)
(0.235429 2.31643 -1.84083e-19)
(0.298825 3.32601 1.76433e-19)
(0.282344 3.47236 -1.94975e-19)
(0.245848 3.49412 -1.12933e-19)
(0.207797 3.52165 -9.38201e-20)
(0.155488 3.51517 -1.11155e-20)
(0.269913 0.262837 0)
(0.970422 1.03982 5.3893e-20)
(1.11195 1.22 -3.78181e-20)
(1.11663 1.25437 -2.38763e-20)
(1.0655 1.23426 -1.1184e-19)
(0.998542 1.20232 4.16236e-20)
(0.924346 1.16873 -1.84586e-20)
(0.839897 1.13253 1.19464e-20)
(0.742754 1.092 -2.48459e-19)
(0.628166 1.04518 -1.41874e-20)
(0.505616 0.995351 -1.17234e-18)
(0.389236 0.945557 5.02824e-20)
(0.281555 0.90855 -5.95888e-20)
(0.259697 1.4784 -7.40306e-20)
(0.336264 3.08826 1.77796e-20)
(0.358492 3.47033 7.80702e-22)
(0.317466 3.52847 2.76396e-19)
(0.279393 3.55366 1.33277e-19)
(0.229928 3.57737 -2.91859e-20)
(0.169867 3.57307 -5.01025e-20)
(0.253619 0.261278 1.38212e-19)
(0.966653 1.0652 3.69868e-19)
(1.10323 1.24527 -1.08999e-19)
(1.10559 1.27903 -9.04492e-20)
(1.05439 1.2588 0)
(0.987784 1.22715 9.09322e-20)
(0.913638 1.19386 -1.12923e-20)
(0.829327 1.15834 1.02924e-20)
(0.732069 1.11921 -2.76694e-20)
(0.616908 1.07516 -4.78262e-19)
(0.492818 1.03008 -5.38643e-19)
(0.374455 0.98652 -4.12109e-19)
(0.282607 1.03695 -4.47887e-19)
(0.328281 2.16978 4.63741e-19)
(0.423228 3.37594 3.8616e-19)
(0.403077 3.53027 0)
(0.356474 3.57466 0)
(0.318262 3.61615 -2.17905e-20)
(0.265449 3.67714 0)
(0.181988 3.65239 -1.86534e-20)
(0.242838 0.263167 -2.09143e-19)
(0.960912 1.09168 -3.1663e-19)
(1.09311 1.27175 0)
(1.09322 1.30446 6.18758e-21)
(1.04205 1.28396 -1.27264e-19)
(0.975905 1.25246 1.56675e-19)
(0.902135 1.21949 1.91333e-21)
(0.818168 1.18456 5.28587e-21)
(0.721032 1.14673 -1.72342e-19)
(0.60569 1.10541 2.37268e-20)
(0.480902 1.06519 0)
(0.362353 1.03083 0)
(0.308681 1.28057 -4.0805e-19)
(0.411711 2.84823 1.65907e-19)
(0.495893 3.48769 2.09951e-19)
(0.449276 3.56381 0)
(0.408755 3.62611 1.00957e-21)
(0.372521 3.68741 -6.11117e-20)