/*--------------------------------*- C++ -*----------------------------------*\
  =========                 |
  \\      /  F ield         | OpenFOAM: The Open Source CFD Toolbox
   \\    /   O peration     | Website:  https://openfoam.org
    \\  /    A nd           | Version:  9
     \\/     M anipulation  |
\*---------------------------------------------------------------------------*/
FoamFile
{
    format      ascii;
    class       volScalarField;
    location    "19";
    object      p;
}
// * * * * * * * * * * * * * * * * * * * * * * * * * * * * * * * * * * * * * //

dimensions      [0 2 -2 0 0 0 0];

internalField   nonuniform List<scalar> 
8800
(
0.413338
0.365557
0.326879
0.297894
0.27704
0.262216
0.25162
0.244129
0.239269
0.237111
0.238204
0.242205
0.248675
0.257848
0.270519
0.288175
0.312896
0.346794
0.389304
0.448002
0.244571
0.25225
0.259749
0.263066
0.261575
0.256515
0.250048
0.243979
0.239229
0.236305
0.235878
0.238189
0.242489
0.248267
0.254894
0.261067
0.264631
0.263851
0.258367
0.249641
0.222956
0.229127
0.233276
0.23625
0.238327
0.238956
0.237864
0.235754
0.233692
0.232665
0.233436
0.235601
0.238198
0.240207
0.24067
0.239357
0.236918
0.23345
0.228856
0.225085
0.217115
0.219779
0.222582
0.225045
0.226739
0.227946
0.228714
0.228834
0.228488
0.2283
0.22884
0.229772
0.230376
0.230229
0.229436
0.228183
0.226226
0.223535
0.221061
0.219556
0.21172
0.213158
0.215016
0.217147
0.219025
0.22044
0.221469
0.222263
0.222826
0.223253
0.223648
0.223848
0.223672
0.223135
0.222202
0.220734
0.218837
0.216818
0.215419
0.214594
0.206671
0.2076
0.208962
0.210688
0.212484
0.214156
0.215552
0.216657
0.217568
0.218293
0.218686
0.218666
0.218273
0.217473
0.216241
0.214714
0.213092
0.211587
0.21065
0.210116
0.201866
0.202524
0.203652
0.205196
0.206843
0.208519
0.210135
0.211547
0.212689
0.213569
0.214056
0.214023
0.21348
0.21249
0.211211
0.209821
0.208398
0.207135
0.206417
0.206051
0.197449
0.197933
0.198903
0.200339
0.201892
0.203458
0.205043
0.206613
0.208028
0.209154
0.209727
0.209649
0.209047
0.208122
0.207027
0.205799
0.204506
0.203409
0.202839
0.20258
0.19336
0.193698
0.194553
0.195896
0.197392
0.19892
0.200444
0.201934
0.203385
0.20467
0.205425
0.205535
0.205187
0.204496
0.203551
0.202446
0.201285
0.200316
0.199864
0.199698
0.189907
0.190105
0.190843
0.192116
0.193551
0.195046
0.196626
0.198247
0.199832
0.201284
0.202279
0.202615
0.202411
0.201821
0.201011
0.200071
0.199033
0.198195
0.197867
0.197786
0.187231
0.187336
0.187831
0.18879
0.189936
0.191166
0.192503
0.194007
0.19565
0.197322
0.198614
0.199291
0.199482
0.199361
0.198983
0.198427
0.197777
0.197281
0.197111
0.19707
0.184649
0.184727
0.185039
0.185684
0.186569
0.187672
0.189002
0.190574
0.192366
0.194306
0.19598
0.197033
0.197544
0.19768
0.197618
0.197447
0.197213
0.197045
0.196976
0.196937
0.18142
0.181494
0.181733
0.1822
0.18291
0.183864
0.185153
0.186809
0.188834
0.191163
0.193296
0.194791
0.195753
0.196271
0.196539
0.196724
0.19682
0.196852
0.196831
0.196791
0.177303
0.177362
0.17761
0.178078
0.17877
0.179781
0.181198
0.183066
0.185412
0.188225
0.190936
0.192953
0.194264
0.195192
0.195855
0.196254
0.196505
0.196605
0.19661
0.196572
0.172437
0.172479
0.172751
0.17334
0.174166
0.175327
0.176993
0.179206
0.182036
0.185487
0.188898
0.191518
0.193366
0.194625
0.195493
0.196072
0.196401
0.196536
0.196575
0.196545
0.166924
0.166956
0.167259
0.167977
0.169051
0.170397
0.1724
0.175054
0.178483
0.182743
0.187038
0.190414
0.192838
0.194541
0.195682
0.196437
0.196837
0.197033
0.197111
0.197086
0.160767
0.160795
0.161116
0.161927
0.163247
0.16497
0.16738
0.170594
0.174812
0.180093
0.185473
0.189756
0.192872
0.195052
0.196552
0.197503
0.198059
0.198356
0.198469
0.198442
0.153755
0.153784
0.154184
0.155083
0.156583
0.158735
0.161662
0.165637
0.170873
0.177449
0.184171
0.189564
0.193469
0.196258
0.198177
0.199426
0.200192
0.200614
0.200763
0.20073
0.145477
0.145512
0.145988
0.147086
0.148869
0.151468
0.155105
0.160079
0.166624
0.174834
0.183217
0.189929
0.194851
0.198346
0.200751
0.202357
0.20337
0.203929
0.204114
0.20407
0.135457
0.135505
0.13611
0.137457
0.139674
0.142924
0.147506
0.153764
0.161985
0.17225
0.182671
0.190995
0.197098
0.20142
0.204419
0.206443
0.207736
0.208439
0.208668
0.208612
0.12316
0.123227
0.124011
0.125743
0.128578
0.132724
0.138563
0.146517
0.156899
0.16973
0.182639
0.192893
0.200374
0.20569
0.209392
0.211907
0.213519
0.214388
0.214667
0.214596
0.107802
0.107895
0.108941
0.11124
0.114984
0.120403
0.127982
0.138201
0.151345
0.167344
0.183229
0.195752
0.204867
0.211359
0.215898
0.219001
0.220996
0.222056
0.222393
0.222303
0.0882285
0.08836
0.0898193
0.093009
0.0981237
0.105404
0.115431
0.128676
0.145342
0.165205
0.184601
0.199759
0.210775
0.218646
0.224185
0.228003
0.23048
0.231794
0.232193
0.232076
0.0626841
0.0629021
0.065066
0.069725
0.0769801
0.0870577
0.100572
0.11788
0.138997
0.163484
0.186926
0.205078
0.218266
0.227746
0.234483
0.239181
0.242251
0.243873
0.244349
0.244198
0.0281187
0.0285494
0.0321296
0.0395232
0.0503751
0.0648175
0.0833199
0.105983
0.132566
0.162423
0.190389
0.21184
0.227448
0.238776
0.24695
0.252757
0.256603
0.258624
0.259182
0.258981
-0.0214
-0.019897
-0.012615
0.00034629
0.0174967
0.0386703
0.0640441
0.0934583
0.126478
0.162328
0.195157
0.220111
0.238318
0.251697
0.261558
0.268752
0.273655
0.276265
0.276947
0.276669
-0.0952954
-0.0865746
-0.0698689
-0.0468164
-0.0202143
0.00991914
0.043693
0.0809008
0.121092
0.163516
0.201687
0.230582
0.251839
0.267746
0.279831
0.289074
0.295697
0.299474
0.300594
0.30051
-0.174329
-0.154616
-0.127874
-0.094458
-0.0581728
-0.0189448
0.0233164
0.0685123
0.116297
0.166063
0.210655
0.244615
0.269953
0.289326
0.304481
0.316473
0.325513
0.33158
0.333761
0.33383
-0.237673
-0.215403
-0.180513
-0.138777
-0.0939739
-0.0463341
0.0040219
0.0569213
0.112018
0.168739
0.219246
0.257685
0.28648
0.308646
0.326091
0.339963
0.350604
0.35774
0.359577
0.359904
-0.289123
-0.264803
-0.225014
-0.177386
-0.125934
-0.0713696
-0.0139973
0.0458456
0.10767
0.170796
0.226586
0.268789
0.300249
0.324344
0.343202
0.358154
0.369565
0.376993
0.379251
0.379654
-0.331209
-0.30605
-0.26278
-0.210626
-0.153959
-0.0937842
-0.0305047
0.0353671
0.103178
0.172054
0.232491
0.27781
0.311252
0.336609
0.356268
0.371724
0.383406
0.390956
0.393482
0.393852
-0.36705
-0.341414
-0.29567
-0.239854
-0.178933
-0.114059
-0.0457176
0.0254371
0.0985814
0.172644
0.237224
0.2852
0.320236
0.346503
0.366611
0.382204
0.393882
0.401376
0.404068
0.404419
-0.398578
-0.372692
-0.325034
-0.266218
-0.201733
-0.132793
-0.0600234
0.0158331
0.0938229
0.172653
0.241111
0.291579
0.328044
0.355031
0.375421
0.39102
0.402639
0.410072
0.412867
0.413199
-0.427251
-0.401138
-0.351891
-0.290567
-0.223019
-0.150551
-0.0738479
0.00627421
0.0887472
0.172112
0.244298
0.297145
0.334973
0.362673
0.383373
0.399051
0.410631
0.417926
0.420801
0.421128
-0.453917
-0.427595
-0.377009
-0.313513
-0.243297
-0.167709
-0.0874813
-0.0034811
0.0831642
0.170844
0.246692
0.30202
0.341348
0.369894
0.390998
0.406817
0.418405
0.425562
0.428411
0.428827
-0.479266
-0.452677
-0.400858
-0.335468
-0.262882
-0.18454
-0.101164
-0.0136273
0.0769054
0.168769
0.248416
0.306424
0.347426
0.376961
0.398599
0.414656
0.426296
0.433364
0.436122
0.436541
-0.503569
-0.476683
-0.423737
-0.356737
-0.28204
-0.201237
-0.115029
-0.024261
0.0699385
0.165923
0.249438
0.310337
0.353278
0.384016
0.40636
0.422784
0.434554
0.441576
0.444196
0.444541
-0.527165
-0.499895
-0.446057
-0.377478
-0.300892
-0.217896
-0.129135
-0.035409
0.0622166
0.162164
0.249632
0.313694
0.358894
0.39111
0.414356
0.431286
0.44326
0.450272
0.452727
0.452976
-0.550097
-0.52238
-0.467808
-0.397781
-0.319523
-0.234577
-0.143529
-0.0471278
0.0536448
0.157401
0.24892
0.316417
0.364202
0.398203
0.422584
0.440178
0.452444
0.459458
0.46178
0.461876
-0.572439
-0.54437
-0.488973
-0.417693
-0.337959
-0.251286
-0.158218
-0.0594376
0.0442173
0.151597
0.247164
0.318361
0.369094
0.405234
0.431016
0.449437
0.462057
0.469036
0.471214
0.471168
-0.594264
-0.565762
-0.509601
-0.437211
-0.356183
-0.26799
-0.173158
-0.0722739
0.0339728
0.144707
0.244248
0.319334
0.373407
0.412099
0.439596
0.459015
0.472037
0.478936
0.480911
0.48074
-0.615607
-0.586598
-0.529708
-0.456313
-0.37414
-0.284638
-0.188274
-0.0855706
0.0229423
0.136709
0.240068
0.31914
0.376892
0.418631
0.448273
0.468899
0.482318
0.489047
0.490736
0.490453
-0.636292
-0.60682
-0.549237
-0.474961
-0.391789
-0.301153
-0.203496
-0.0992479
0.0112028
0.127647
0.234541
0.317581
0.379274
0.424593
0.456984
0.479144
0.492858
0.499161
0.500456
0.500063
-0.656283
-0.626379
-0.568162
-0.493096
-0.40906
-0.317469
-0.218728
-0.113213
-0.00114454
0.117571
0.227628
0.314474
0.380238
0.429634
0.465599
0.489976
0.503907
0.509197
0.509786
0.509309
-0.675647
-0.645235
-0.586451
-0.510679
-0.425893
-0.333505
-0.23388
-0.127348
-0.0139904
0.106574
0.219328
0.309689
0.379439
0.433225
0.473747
0.501688
0.516354
0.519647
0.51851
0.517956
-0.694219
-0.663377
-0.60405
-0.52765
-0.442232
-0.349181
-0.248852
-0.141541
-0.0272042
0.0947877
0.209697
0.303139
0.376591
0.434662
0.480557
0.514093
0.531796
0.533274
0.52809
0.526279
-0.71209
-0.680799
-0.620984
-0.544034
-0.458109
-0.364542
-0.263705
-0.15585
-0.0408505
0.0821452
0.198627
0.294586
0.37139
0.433121
0.484448
0.525673
0.550587
0.555944
0.546497
0.525838
-0.729201
-0.697514
-0.637376
-0.560012
-0.473803
-0.379906
-0.278838
-0.170747
-0.0554697
0.067984
0.185405
0.283138
0.363018
0.427401
0.48219
0.531187
0.563371
0.56717
0.551329
0.527019
-0.745405
-0.713696
-0.653057
-0.575336
-0.489038
-0.394942
-0.294028
-0.185904
-0.0707298
0.0526327
0.170255
0.268631
0.351079
0.417008
0.46907
0.518763
0.549201
0.543055
0.47227
0.431336
-0.760114
-0.73037
-0.66767
-0.589445
-0.503127
-0.409193
-0.308995
-0.201106
-0.086413
0.0362494
0.153214
0.250998
0.334864
0.402426
0.445434
0.476186
0.491927
0.44722
0.37176
0.322882
-0.813567
-0.744477
-0.680929
-0.603739
-0.517455
-0.423997
-0.323803
-0.216598
-0.10283
0.0184763
0.133848
0.229951
0.311893
0.385322
0.395547
0.406428
0.377357
0.311522
0.22788
0.180823
-0.773941
-0.758933
-0.699871
-0.624025
-0.538034
-0.445082
-0.346095
-0.240066
-0.128104
-0.00954374
0.101845
0.193735
0.266812
0.334684
0.339187
0.224025
0.111143
0.0331883
-0.0479895
-0.0054936
-0.80263
-0.774822
-0.715524
-0.639621
-0.554125
-0.461596
-0.362611
-0.257535
-0.147122
-0.031118
0.0764153
0.163334
0.228759
0.264764
0.21431
0.0552331
-0.0902383
-0.193718
-0.308439
-0.24069
-0.824451
-0.793444
-0.733487
-0.657207
-0.571865
-0.479568
-0.380911
-0.276958
-0.168369
-0.0554062
0.0476264
0.128257
0.183826
0.190525
0.074972
-0.130841
-0.31072
-0.449521
-0.615221
-0.555677
-0.84537
-0.812902
-0.752035
-0.675066
-0.589653
-0.497581
-0.399618
-0.296896
-0.1903
-0.0807062
0.0171101
0.0908279
0.13236
0.100922
-0.0786076
-0.31813
-0.549666
-0.758554
-0.995495
-0.98795
-0.865231
-0.832654
-0.771123
-0.693563
-0.608064
-0.516275
-0.419094
-0.317691
-0.213295
-0.107378
-0.0152842
0.0510054
0.0756504
0.00394743
-0.226743
-0.489024
-0.764461
-1.013
-1.32258
-1.68665
-0.885119
-0.852805
-0.790954
-0.71305
-0.627462
-0.535912
-0.439431
-0.339346
-0.237207
-0.135114
-0.0488875
0.0093613
0.0169768
-0.105709
-0.357436
-0.622376
-0.89432
-1.12548
-1.21893
-1.36184
-0.905696
-0.873694
-0.811783
-0.733801
-0.64823
-0.556994
-0.461283
-0.362654
-0.263044
-0.165207
-0.0853023
-0.0361978
-0.0524141
-0.226634
-0.472199
-0.719167
-0.937377
-1.07283
-1.09974
-1.12655
-0.927302
-0.89561
-0.833735
-0.755825
-0.670416
-0.579625
-0.48487
-0.38794
-0.291218
-0.198209
-0.125054
-0.0864449
-0.131222
-0.338258
-0.57529
-0.797407
-0.967867
-1.0382
-1.05525
-1.05907
-0.950107
-0.918481
-0.856867
-0.779041
-0.693896
-0.603713
-0.510092
-0.415108
-0.321636
-0.233994
-0.168092
-0.14217
-0.213368
-0.443823
-0.670513
-0.876242
-1.00963
-1.02959
-1.03106
-1.03112
-0.974018
-0.942366
-0.881031
-0.803376
-0.718592
-0.629136
-0.536815
-0.444002
-0.354107
-0.27231
-0.214384
-0.200312
-0.300659
-0.545727
-0.755814
-0.94313
-1.01147
-1.01898
-1.01833
-1.01719
-0.998769
-0.967163
-0.906043
-0.828654
-0.744319
-0.655708
-0.564839
-0.474386
-0.388353
-0.312719
-0.263451
-0.258714
-0.402751
-0.646304
-0.828202
-0.973456
-1.0275
-1.00889
-1.00401
-1.00271
-1.02379
-0.992503
-0.931563
-0.854589
-0.77079
-0.683131
-0.593822
-0.50588
-0.423856
-0.354714
-0.314398
-0.324726
-0.504027
-0.752873
-0.899149
-0.93008
-0.963034
-0.987212
-0.995087
-0.995981
-1.04864
-1.01793
-0.95734
-0.880769
-0.797602
-0.710944
-0.623271
-0.537914
-0.459882
-0.397581
-0.365737
-0.396883
-0.59781
-0.86738
-1.05793
-0.970395
-1.0087
-1.01338
-1.01019
-1.0108
-1.07254
-1.04222
-0.982755
-0.90664
-0.82413
-0.738558
-0.652513
-0.569682
-0.495464
-0.439948
-0.416281
-0.464281
-0.69027
-0.977776
-1.41076
-1.45115
-1.24571
-1.12343
-1.07434
-1.05954
-1.09459
-1.06514
-1.00679
-0.93145
-0.849694
-0.765192
-0.680685
-0.600097
-0.529367
-0.479516
-0.464675
-0.524442
-0.763895
-0.996251
-1.41838
-1.7802
-1.38163
-1.31243
-1.26183
-1.23981
-1.11356
-1.0855
-1.02853
-0.954236
-0.873435
-0.789926
-0.706689
-0.627841
-0.559945
-0.513578
-0.508925
-0.574979
-0.77717
-0.699504
-0.280594
-0.361294
-1.05116
-1.3571
-1.3357
-1.33365
-1.1283
-1.10209
-1.04712
-0.974013
-0.89419
-0.811646
-0.729415
-0.651519
-0.584932
-0.540767
-0.546361
-0.615474
-0.851889
-0.85742
-0.635309
-0.979956
-1.29692
-1.40973
-1.33344
-1.35609
-1.13764
-1.11389
-1.06137
-0.989773
-0.910926
-0.829231
-0.747546
-0.669651
-0.60202
-0.558155
-0.564824
-0.681131
-1.21489
-2.10259
-3.04142
-3.64783
-3.5886
-3.06221
-2.54266
-2.35668
-1.14043
-1.11964
-1.07034
-1.00054
-0.922691
-0.841596
-0.759846
-0.680776
-0.609686
-0.558139
-0.556012
-0.703279
-1.42083
-2.5571
-3.72992
-4.31944
-4.25811
-3.82929
-3.34319
-3.10279
-1.13565
-1.11852
-1.07319
-1.00567
-0.928717
-0.848003
-0.765616
-0.684064
-0.60666
-0.540267
-0.509319
-0.531479
-0.99363
-1.54768
-2.0622
-2.13559
-1.85994
-1.47669
-1.17867
-1.03205
-1.12298
-1.10924
-1.06916
-1.00455
-0.928673
-0.848054
-0.76467
-0.679674
-0.593648
-0.507127
-0.417915
-0.329337
-0.253151
-0.0343407
0.345204
0.768463
1.19158
1.49261
1.65224
1.70234
-1.10273
-1.09278
-1.05813
-0.996978
-0.922106
-0.841936
-0.757991
-0.670046
-0.5756
-0.467407
-0.345274
-0.219472
0.0453179
0.603345
1.29987
1.94332
2.40696
2.67599
2.79418
2.82518
-1.07554
-1.06923
-1.04034
-0.982841
-0.908875
-0.830423
-0.747501
-0.658652
-0.559213
-0.439397
-0.309823
-0.175498
0.000994074
0.548623
1.19776
1.75788
2.14585
2.3649
2.46896
2.50234
-1.0401
-1.03691
-1.01387
-0.959705
-0.889372
-0.813662
-0.734538
-0.649415
-0.552157
-0.430915
-0.293581
-0.171391
-0.0712384
0.300818
0.78971
1.19064
1.48717
1.66508
1.75825
1.79219
-0.990858
-0.989117
-0.97159
-0.924546
-0.860239
-0.791477
-0.721183
-0.645972
-0.557148
-0.440262
-0.296745
-0.17365
-0.0803281
0.121106
0.425352
0.686085
0.88844
1.01855
1.08609
1.10875
-0.915609
-0.914518
-0.902228
-0.867802
-0.817985
-0.76391
-0.709141
-0.650468
-0.577132
-0.468643
-0.321504
-0.174674
-0.0517233
0.0717573
0.259996
0.420458
0.54495
0.62771
0.677251
0.690247
-0.8325
-0.830656
-0.822686
-0.802142
-0.770933
-0.735902
-0.700599
-0.663526
-0.615582
-0.529874
-0.393004
-0.230583
-0.0890329
-0.00490131
0.0927392
0.200187
0.283452
0.34018
0.365663
0.371091
-0.770185
-0.768468
-0.763839
-0.753335
-0.737633
-0.720524
-0.706111
-0.696417
-0.688445
-0.662435
-0.556553
-0.381977
-0.216735
-0.152839
-0.0966214
-0.0146497
0.0611002
0.109945
0.136294
0.139342
-0.735774
-0.735045
-0.733467
-0.730017
-0.725769
-0.724863
-0.733753
-0.76191
-0.822154
-0.915191
-0.908451
-0.696255
-0.471717
-0.380513
-0.298846
-0.206818
-0.126243
-0.0702036
-0.0432644
-0.0432602
-0.714288
-0.715034
-0.716212
-0.718097
-0.723642
-0.738504
-0.773522
-0.851
-1.01696
-1.3076
-1.47963
-1.21574
-0.861411
-0.673414
-0.54878
-0.413106
-0.300232
-0.225283
-0.195299
-0.19786
-0.684937
-0.686858
-0.690442
-0.697046
-0.711007
-0.739306
-0.79891
-0.926369
-1.20978
-1.74304
-2.14799
-1.84347
-1.3122
-1.01861
-0.812778
-0.618829
-0.474629
-0.389625
-0.363685
-0.366726
-0.633357
-0.63597
-0.641003
-0.650387
-0.669055
-0.7051
-0.778438
-0.932058
-1.26603
-1.94375
-2.41065
-2.09103
-1.5391
-1.21717
-0.965064
-0.770156
-0.64968
-0.595838
-0.58023
-0.580008
-0.553932
-0.556486
-0.561499
-0.570942
-0.589109
-0.624165
-0.693071
-0.837718
-1.15808
-1.7516
-2.11964
-1.83907
-1.46658
-1.19807
-0.961154
-0.829501
-0.778165
-0.764565
-0.75359
-0.748782
-0.45231
-0.454209
-0.458068
-0.465099
-0.478837
-0.504911
-0.555437
-0.659962
-0.88839
-1.30097
-1.5541
-1.40064
-1.16269
-0.934167
-0.795137
-0.743134
-0.754382
-0.762709
-0.757724
-0.753314
-0.341583
-0.342578
-0.344757
-0.34865
-0.356333
-0.370734
-0.398143
-0.453467
-0.571283
-0.786979
-0.928734
-0.836364
-0.697613
-0.575407
-0.5444
-0.573625
-0.604058
-0.616566
-0.617131
-0.615571
-0.236397
-0.23661
-0.237355
-0.238628
-0.241224
-0.245982
-0.254742
-0.271802
-0.306411
-0.364421
-0.399637
-0.342114
-0.303837
-0.305479
-0.353211
-0.399525
-0.42463
-0.43458
-0.437663
-0.437622
-0.147493
-0.147237
-0.147135
-0.146925
-0.146535
-0.145654
-0.143901
-0.140698
-0.135136
-0.122493
-0.102158
-0.0723189
-0.0953924
-0.155669
-0.209429
-0.246458
-0.265118
-0.27411
-0.277717
-0.27856
-0.0794721
-0.0790416
-0.0786395
-0.0779534
-0.0764971
-0.073484
-0.0678902
-0.0581183
-0.0419998
-0.0178439
0.00125487
0.00447473
-0.0249578
-0.0733021
-0.113257
-0.138748
-0.151997
-0.158289
-0.161622
-0.162642
-0.0317756
-0.0313625
-0.0309847
-0.030405
-0.0290291
-0.0260188
-0.0203722
-0.0107684
0.00395712
0.022781
0.0329751
0.0252386
0.00118805
-0.0301878
-0.0558948
-0.072215
-0.0810323
-0.0855176
-0.0879004
-0.0886819
-0.000943274
-0.000630947
-0.000400125
-0.000135804
0.000726595
0.00290279
0.00711621
0.0141856
0.0244651
0.0359545
0.0392929
0.0296945
0.0119585
-0.00763703
-0.0234385
-0.0337269
-0.0394917
-0.0424995
-0.0440624
-0.0445756
0.0173052
0.0175053
0.0175819
0.0175374
0.0178624
0.019103
0.0217413
0.0261804
0.0323089
0.0382358
0.0379114
0.0295036
0.0170871
0.00468138
-0.00515972
-0.0117722
-0.0156544
-0.0177069
-0.0187092
-0.0190378
0.0268271
0.0269357
0.0268958
0.0266344
0.0265492
0.0270306
0.0283799
0.0307876
0.0339875
0.0364361
0.0344763
0.0277615
0.0192261
0.0111939
0.00487027
0.000490091
-0.00219472
-0.00362178
-0.00428347
-0.00448979
0.030609
0.0306563
0.0305403
0.0301531
0.0298191
0.0297821
0.0302329
0.0312315
0.0325147
0.0329888
0.0305536
0.0254094
0.0195104
0.0141662
0.0099699
0.00698925
0.00509648
0.00408566
0.00364098
0.00350275
0.0307483
0.0307593
0.0306091
0.0301857
0.0297281
0.0293963
0.0293095
0.0294723
0.0296572
0.0291091
0.026684
0.0227669
0.0186173
0.0149642
0.012096
0.010018
0.0086621
0.00793656
0.00763156
0.00754551
0.0286495
0.0286417
0.0284867
0.0280797
0.0275868
0.0271174
0.0267414
0.026441
0.0260461
0.0250554
0.0228741
0.0199077
0.0169465
0.0143951
0.0123918
0.0109194
0.00994003
0.00941638
0.00920557
0.00914687
0.0252158
0.0252007
0.0250597
0.024698
0.0242307
0.0237325
0.0232442
0.0227417
0.0221014
0.020998
0.0191493
0.0169137
0.0147809
0.0129739
0.0115553
0.0105019
0.00979186
0.00941296
0.00926591
0.00922595
0.0210083
0.0209924
0.0208747
0.0205726
0.020164
0.0197032
0.0192128
0.0186709
0.0179915
0.0169659
0.0154768
0.0138174
0.0122884
0.0110093
0.0100048
0.00925289
0.00874078
0.00846837
0.00836632
0.00833914
0.0163596
0.0163459
0.0162549
0.0160172
0.0156843
0.0152999
0.0148753
0.0143936
0.0137973
0.0129559
0.0118333
0.0106491
0.00958426
0.0087002
0.00800379
0.00747718
0.00711471
0.00692302
0.00685389
0.00683507
0.0114616
0.0114512
0.0113861
0.0112126
0.0109659
0.0106816
0.0103656
0.0100053
0.00956421
0.00896491
0.00820411
0.0074291
0.00674295
0.00617437
0.0057223
0.00537401
0.00512993
0.00500148
0.00495672
0.00494405
0.00642121
0.00641403
0.00637429
0.00626603
0.00611634
0.00595045
0.00576871
0.0055631
0.00531381
0.00498208
0.0045716
0.0041613
0.0038015
0.00350289
0.00326199
0.00306981
0.00292938
0.00285552
0.00283028
0.00282126
0.00131501
0.00131887
0.00134048
0.00135366
0.00132969
0.00128833
0.00124056
0.00118819
0.0011265
0.0010485
0.00094992
0.00084429
0.000750037
0.000670268
0.000605331
0.000554749
0.000522217
0.000518914
0.000537464
0.000548224
-0.711068
-0.491355
-0.241672
-0.0362538
0.130517
0.264771
0.377924
0.473273
0.516668
0.494145
-0.316132
-0.164527
-0.00629899
0.130103
0.245889
0.342834
0.421664
0.477939
0.50712
0.51846
-0.0445393
0.0562411
0.162382
0.25674
0.338124
0.406409
0.460692
0.500337
0.528259
0.545439
0.146425
0.215741
0.290087
0.35756
0.416211
0.465865
0.506394
0.538346
0.56365
0.581436
0.290902
0.341059
0.394388
0.444824
0.48926
0.527807
0.560477
0.587303
0.609238
0.626768
0.407215
0.444475
0.486959
0.526839
0.563118
0.595357
0.623283
0.646496
0.665364
0.682571
0.507096
0.538238
0.575279
0.610023
0.642256
0.671324
0.69657
0.717393
0.733592
0.750633
0.600155
0.630908
0.666793
0.700449
0.731464
0.759254
0.783085
0.802286
0.816143
0.833199
0.698263
0.732334
0.770136
0.804735
0.835669
0.86262
0.885193
0.902934
0.915151
0.932594
0.815043
0.853206
0.892599
0.927528
0.957427
0.982645
1.0034
1.0196
1.0313
1.04942
0.961123
1.00004
1.03639
1.06744
1.09345
1.11584
1.13513
1.15085
1.16343
1.18146
1.1365
1.16854
1.19496
1.21758
1.23776
1.25665
1.2745
1.29108
1.30653
1.32463
1.32549
1.34286
1.35811
1.37449
1.3905
1.40513
1.41842
1.43241
1.45002
1.4702
1.50765
1.51712
1.52872
1.53958
1.5489
1.55858
1.56947
1.58089
1.59229
1.60767
1.71486
1.71857
1.70365
1.68887
1.68268
1.68841
1.70691
1.73726
1.76947
1.79614
2.02122
1.88636
1.80978
1.76752
1.75012
1.7541
1.78154
1.83795
1.94058
2.16495
0.303932
0.30181
0.297325
0.288708
0.276497
0.264382
0.254166
0.246268
0.24062
0.237289
0.236784
0.239318
0.244228
0.251287
0.260541
0.271976
0.284549
0.295529
0.301618
0.304649
0.22836
0.234211
0.240562
0.24508
0.247572
0.247269
0.244549
0.240745
0.237211
0.234865
0.234554
0.236543
0.239997
0.244099
0.247758
0.249523
0.248493
0.244932
0.239708
0.233064
0.219911
0.222208
0.225635
0.228666
0.230782
0.232317
0.233105
0.232802
0.231746
0.230764
0.23076
0.231959
0.23355
0.234644
0.234638
0.233593
0.231916
0.229475
0.226139
0.223187
0.214368
0.215451
0.217329
0.219786
0.221886
0.223378
0.224439
0.2252
0.225581
0.225714
0.226008
0.226536
0.226854
0.226672
0.226043
0.224999
0.223351
0.221105
0.218896
0.217476
0.209164
0.209817
0.210987
0.212814
0.214728
0.216485
0.217876
0.218927
0.219771
0.220447
0.220947
0.221179
0.221058
0.22059
0.219724
0.218379
0.216684
0.214906
0.213421
0.212603
0.20423
0.204668
0.205532
0.20701
0.208692
0.210397
0.212026
0.213439
0.214594
0.215531
0.216172
0.216359
0.216084
0.215374
0.214254
0.212869
0.211377
0.20992
0.208785
0.208235
0.199611
0.199913
0.200611
0.201937
0.203524
0.20515
0.2068
0.208396
0.209795
0.210916
0.211693
0.211954
0.211638
0.210824
0.209689
0.208407
0.207059
0.205737
0.204788
0.20439
0.195357
0.195564
0.196134
0.197316
0.198789
0.200309
0.201817
0.20334
0.204863
0.206255
0.207232
0.207511
0.207205
0.206542
0.205658
0.204589
0.203396
0.20224
0.201452
0.201163
0.191524
0.191637
0.192107
0.19323
0.194674
0.196196
0.197782
0.199364
0.200881
0.202304
0.20345
0.204018
0.204
0.203516
0.202692
0.201694
0.200593
0.199518
0.198836
0.198649
0.1885
0.188543
0.188873
0.189793
0.191054
0.192383
0.193783
0.195294
0.196924
0.198562
0.199958
0.200757
0.200934
0.200717
0.200233
0.199556
0.198724
0.197901
0.197432
0.197334
0.185982
0.186004
0.18621
0.186809
0.187734
0.188807
0.190046
0.191464
0.193055
0.194802
0.196489
0.197684
0.198299
0.198477
0.198368
0.198062
0.197665
0.197264
0.197057
0.197003
0.183142
0.183166
0.183321
0.183717
0.184381
0.185289
0.186439
0.187892
0.189674
0.191718
0.193796
0.195397
0.19635
0.196847
0.197006
0.197073
0.197051
0.196995
0.196949
0.196911
0.179465
0.179485
0.179632
0.179972
0.180526
0.181325
0.182464
0.18398
0.185925
0.188298
0.190861
0.192989
0.194415
0.195372
0.195914
0.196267
0.19656
0.196714
0.196742
0.196717
0.174959
0.174964
0.175112
0.175501
0.176118
0.177035
0.178318
0.180095
0.182404
0.185255
0.188431
0.191166
0.193083
0.194363
0.195274
0.19589
0.196304
0.196509
0.196566
0.196557
0.169767
0.169761
0.169902
0.170376
0.171155
0.172209
0.173763
0.175856
0.178606
0.182091
0.18605
0.18954
0.192062
0.193831
0.195053
0.195887
0.196399
0.196656
0.196761
0.196776
0.163948
0.163923
0.164081
0.164605
0.165524
0.166982
0.168813
0.171323
0.174665
0.178942
0.183861
0.188275
0.19153
0.193844
0.195439
0.196514
0.197149
0.197503
0.197672
0.197704
0.157403
0.157367
0.157564
0.158156
0.159263
0.160907
0.163207
0.166275
0.170394
0.175689
0.181824
0.187375
0.191492
0.194416
0.196477
0.197865
0.198731
0.19924
0.199483
0.199525
0.149806
0.149764
0.149998
0.150734
0.152012
0.15395
0.156732
0.160561
0.165685
0.172289
0.179949
0.186889
0.192042
0.195767
0.198369
0.200126
0.201273
0.201969
0.202289
0.202339
0.140703
0.140652
0.140952
0.141831
0.14341
0.1458
0.149238
0.15402
0.16045
0.168723
0.178279
0.186909
0.193329
0.197967
0.201211
0.203431
0.204908
0.205813
0.206216
0.206277
0.12961
0.129548
0.129954
0.131084
0.133055
0.136062
0.140411
0.146475
0.154599
0.164978
0.176875
0.187555
0.195497
0.201202
0.205208
0.207967
0.209821
0.210962
0.211463
0.211536
0.115845
0.115769
0.116327
0.117824
0.120394
0.124292
0.129911
0.137694
0.148015
0.161054
0.175819
0.188953
0.198665
0.205648
0.210563
0.213962
0.216259
0.217676
0.218297
0.218382
0.0984891
0.0984062
0.0992081
0.10125
0.104685
0.109871
0.117278
0.127397
0.140605
0.156988
0.175216
0.191242
0.203034
0.211518
0.217509
0.221673
0.224502
0.226251
0.227018
0.227115
0.0761188
0.0760426
0.0772465
0.0801382
0.084911
0.0920461
0.102051
0.115402
0.132378
0.152892
0.175222
0.194588
0.208773
0.219
0.22627
0.231362
0.234847
0.237001
0.237935
0.238049
0.0463745
0.0463518
0.0482892
0.0526708
0.0597265
0.0699742
0.083845
0.101652
0.123466
0.148981
0.176048
0.199169
0.216035
0.228251
0.237025
0.243253
0.247565
0.250234
0.251374
0.251503
0.00507306
0.00526802
0.00884937
0.0163193
0.0275645
0.0429339
0.0625225
0.0863393
0.114196
0.145569
0.177923
0.205124
0.224902
0.239327
0.249843
0.257461
0.262854
0.266199
0.267582
0.267716
-0.055598
-0.0540503
-0.0454388
-0.0314118
-0.0124424
0.011081
0.038675
0.0701423
0.105139
0.143044
0.181039
0.212494
0.235312
0.252086
0.264528
0.273781
0.280493
0.28475
0.286488
0.286647
-0.12817
-0.125651
-0.109523
-0.0849801
-0.055443
-0.0224224
0.0139412
0.0535988
0.0962895
0.141477
0.186141
0.223049
0.250095
0.270359
0.285782
0.297627
0.306693
0.312262
0.314069
0.314548
-0.20288
-0.194812
-0.171022
-0.136429
-0.0972566
-0.0550516
-0.0100183
0.0377955
0.0881858
0.140696
0.192117
0.234554
0.265839
0.289579
0.308013
0.322502
0.333761
0.340564
0.343761
0.344716
-0.261149
-0.251606
-0.222935
-0.181675
-0.135044
-0.0851525
-0.0324588
0.0228395
0.0804329
0.139819
0.197485
0.244821
0.27964
0.306055
0.326566
0.342698
0.355185
0.363416
0.367635
0.368777
-0.308343
-0.298255
-0.266178
-0.22014
-0.167924
-0.111987
-0.052939
0.00885054
0.0728778
0.138492
0.201761
0.253304
0.290929
0.319241
0.341053
0.358122
0.371339
0.380354
0.384931
0.38614
-0.347485
-0.337296
-0.303105
-0.253387
-0.196674
-0.135832
-0.0714967
-0.00414736
0.065547
0.136734
0.20501
0.260183
0.300037
0.329706
0.352327
0.369841
0.383262
0.392534
0.397133
0.398453
-0.381413
-0.371233
-0.33548
-0.28282
-0.22246
-0.157491
-0.0885854
-0.0163736
0.0583633
0.134608
0.20744
0.265887
0.307715
0.338505
0.36168
0.379387
0.392837
0.402092
0.406689
0.408019
-0.411684
-0.401547
-0.364621
-0.309535
-0.246133
-0.177604
-0.104715
-0.0281762
0.0511422
0.132059
0.209227
0.270815
0.314478
0.34625
0.36988
0.387751
0.401199
0.410466
0.415087
0.416289
-0.439501
-0.429373
-0.391488
-0.33435
-0.268342
-0.196728
-0.120316
-0.0398648
0.0436644
0.128985
0.210307
0.274955
0.320481
0.353309
0.377483
0.395577
0.409085
0.41834
0.422983
0.424024
-0.465629
-0.455485
-0.416758
-0.357843
-0.289539
-0.215194
-0.135652
-0.0516835
0.03572
0.125188
0.210578
0.278434
0.326018
0.360066
0.384895
0.403299
0.416915
0.426154
0.430787
0.431729
-0.490523
-0.480349
-0.440865
-0.380392
-0.310041
-0.233281
-0.150949
-0.0637962
0.0271781
0.120616
0.210126
0.281345
0.331174
0.366648
0.392307
0.411153
0.424969
0.434232
0.438833
0.439744
-0.514572
-0.504293
-0.464033
-0.402261
-0.330067
-0.25115
-0.166314
-0.0762761
0.0180184
0.115257
0.208844
0.283608
0.335952
0.37311
0.399824
0.41928
0.433409
0.442754
0.44725
0.448153
-0.537951
-0.527496
-0.486586
-0.423566
-0.349713
-0.268885
-0.18181
-0.0891595
0.0081773
0.108985
0.206606
0.285134
0.340337
0.379481
0.407493
0.427736
0.442291
0.451769
0.456162
0.457033
-0.560686
-0.550038
-0.508563
-0.444367
-0.369056
-0.286532
-0.197468
-0.102487
-0.00240218
0.101741
0.203342
0.285797
0.34419
0.38569
0.415278
0.436504
0.451598
0.461241
0.465528
0.466286
-0.582912
-0.572029
-0.52995
-0.464692
-0.388105
-0.304083
-0.213268
-0.116238
-0.0136841
0.0935399
0.198958
0.285451
0.347335
0.391592
0.42311
0.445543
0.46128
0.471094
0.475243
0.475866
-0.60455
-0.59344
-0.550777
-0.484555
-0.406827
-0.321494
-0.229156
-0.130337
-0.0256112
0.0843727
0.193386
0.283935
0.349585
0.397016
0.430894
0.454817
0.471295
0.481248
0.485206
0.485651
-0.625621
-0.61426
-0.571015
-0.503926
-0.425187
-0.338716
-0.245065
-0.144709
-0.0381228
0.0742789
0.186589
0.281096
0.350696
0.401742
0.438519
0.464324
0.48163
0.491566
0.495174
0.495426
-0.64598
-0.634435
-0.590613
-0.522751
-0.443126
-0.355666
-0.26092
-0.159275
-0.0511273
0.0633417
0.178563
0.276809
0.350405
0.405437
0.445774
0.474109
0.49242
0.502007
0.504948
0.504944
-0.66572
-0.653913
-0.60955
-0.541001
-0.4606
-0.3723
-0.276626
-0.173941
-0.0645152
0.0516639
0.169347
0.270986
0.348475
0.40769
0.452285
0.484197
0.504153
0.512935
0.51437
0.513903
-0.684717
-0.672651
-0.6278
-0.558624
-0.477534
-0.388535
-0.292101
-0.18858
-0.0781662
0.0393366
0.159028
0.263588
0.344706
0.408024
0.457385
0.494285
0.517599
0.525852
0.524124
0.521945
-0.702999
-0.690718
-0.645316
-0.57557
-0.49389
-0.404306
-0.30726
-0.20311
-0.0919602
0.0265217
0.14773
0.254613
0.338975
0.405986
0.460023
0.503205
0.532757
0.543809
0.539032
0.527756
-0.720504
-0.708055
-0.662207
-0.591985
-0.509867
-0.419886
-0.322435
-0.217934
-0.106357
0.0126836
0.134853
0.24339