/*--------------------------------*- C++ -*----------------------------------*\
  =========                 |
  \\      /  F ield         | OpenFOAM: The Open Source CFD Toolbox
   \\    /   O peration     | Website:  https://openfoam.org
    \\  /    A nd           | Version:  9
     \\/     M anipulation  |
\*---------------------------------------------------------------------------*/
FoamFile
{
    format      ascii;
    class       volScalarField;
    location    "63";
    object      p;
}
// * * * * * * * * * * * * * * * * * * * * * * * * * * * * * * * * * * * * * //

dimensions      [0 2 -2 0 0 0 0];

internalField   nonuniform List<scalar> 
8800
(
0.893523
0.845737
0.80705
0.778057
0.757197
0.742372
0.731786
0.724319
0.719519
0.717488
0.718787
0.723002
0.729666
0.738994
0.751784
0.769524
0.794306
0.82825
0.870802
0.929504
0.724769
0.732448
0.739926
0.743236
0.741735
0.736662
0.730183
0.724118
0.719412
0.716592
0.716343
0.718878
0.72339
0.729352
0.736133
0.74242
0.746066
0.745332
0.739916
0.731229
0.703167
0.709328
0.713456
0.716403
0.718457
0.719068
0.717971
0.715881
0.713887
0.71301
0.714005
0.716414
0.719234
0.721429
0.722047
0.720855
0.718519
0.715129
0.710573
0.706812
0.697349
0.7
0.702754
0.70516
0.706799
0.707968
0.70872
0.708854
0.708582
0.708566
0.709355
0.710555
0.711417
0.711498
0.7109
0.709817
0.708007
0.705441
0.703041
0.701537
0.691958
0.693383
0.695164
0.697199
0.698988
0.700337
0.701338
0.702153
0.702795
0.703397
0.704089
0.704619
0.704744
0.704475
0.703792
0.702553
0.700864
0.699021
0.697717
0.696885
0.686868
0.687789
0.689032
0.690602
0.69224
0.693773
0.695071
0.696158
0.697153
0.69809
0.698827
0.699194
0.699181
0.698763
0.697898
0.69671
0.695392
0.694138
0.693318
0.692766
0.681945
0.682615
0.683579
0.684884
0.686299
0.687766
0.68922
0.690566
0.691799
0.692956
0.693832
0.694245
0.694196
0.693712
0.692925
0.691992
0.69099
0.690074
0.689492
0.689086
0.677141
0.677657
0.678442
0.679576
0.68086
0.682244
0.683706
0.685203
0.68667
0.688063
0.689133
0.689657
0.689673
0.689318
0.688738
0.68803
0.68727
0.686595
0.686164
0.685846
0.672384
0.672795
0.673452
0.674462
0.675675
0.677013
0.678476
0.68006
0.681725
0.683386
0.684706
0.685426
0.685638
0.685505
0.685149
0.684654
0.684099
0.683617
0.683298
0.683039
0.667588
0.667922
0.668491
0.669422
0.670587
0.671911
0.673411
0.675095
0.676951
0.678906
0.680548
0.681567
0.682059
0.682182
0.682058
0.681788
0.681429
0.681108
0.680873
0.680656
0.662664
0.662941
0.663449
0.664334
0.665481
0.666831
0.668406
0.670233
0.67232
0.674615
0.676664
0.678068
0.678896
0.679311
0.679441
0.679399
0.679234
0.679054
0.678887
0.678699
0.657522
0.657755
0.658224
0.659094
0.660263
0.661682
0.663374
0.665397
0.667782
0.670499
0.673046
0.674912
0.676133
0.676884
0.677299
0.677491
0.677524
0.677474
0.677363
0.677195
0.652071
0.652269
0.652718
0.653602
0.654835
0.656368
0.658233
0.660519
0.663283
0.666527
0.669679
0.672094
0.673776
0.67491
0.675644
0.676087
0.676333
0.676406
0.676342
0.676188
0.646208
0.646377
0.646824
0.647752
0.64909
0.650786
0.652891
0.655521
0.658765
0.662663
0.666545
0.669617
0.671842
0.673417
0.674516
0.675262
0.675719
0.675909
0.675885
0.67574
0.639815
0.63996
0.640419
0.641419
0.64291
0.64483
0.647252
0.65032
0.654167
0.658868
0.663636
0.667491
0.670359
0.672454
0.673967
0.675041
0.675741
0.676056
0.67607
0.675928
0.632752
0.632872
0.633359
0.634463
0.636157
0.638371
0.641198
0.644823
0.649421
0.655103
0.66094
0.665732
0.66936
0.672068
0.674072
0.675528
0.676496
0.676937
0.676985
0.676843
0.624835
0.624935
0.625465
0.62671
0.628664
0.631251
0.634596
0.638922
0.644449
0.651328
0.658454
0.664362
0.668888
0.672317
0.674908
0.676807
0.678076
0.678653
0.678731
0.678585
0.615839
0.61594
0.616525
0.617927
0.620213
0.623285
0.627288
0.632491
0.63917
0.647511
0.656183
0.663415
0.669001
0.673275
0.676562
0.67898
0.680589
0.681307
0.681415
0.681261
0.605452
0.605533
0.606208
0.607836
0.610557
0.614249
0.619082
0.625388
0.633496
0.643619
0.654141
0.662932
0.669763
0.675034
0.679116
0.682147
0.68414
0.685006
0.685139
0.684975
0.593297
0.593364
0.594139
0.596078
0.599357
0.603846
0.609742
0.617446
0.627333
0.639626
0.652349
0.662965
0.67124
0.677673
0.682676
0.686418
0.688829
0.689844
0.689996
0.689816
0.578819
0.578874
0.579792
0.582148
0.586166
0.591704
0.598985
0.608479
0.62059
0.635518
0.65084
0.663573
0.673499
0.681262
0.687338
0.691875
0.694729
0.695884
0.696046
0.695849
0.561253
0.561297
0.562428
0.565368
0.570397
0.577354
0.58648
0.598305
0.613216
0.631333
0.649686
0.664831
0.676622
0.685884
0.693143
0.698565
0.701868
0.703142
0.7033
0.703082
0.539435
0.539478
0.540956
0.544778
0.551265
0.560218
0.571873
0.586774
0.605211
0.627154
0.64899
0.666826
0.680676
0.691588
0.700129
0.706492
0.710208
0.711556
0.711691
0.711452
0.511619
0.511682
0.513751
0.518997
0.527747
0.539636
0.554857
0.573844
0.596687
0.623145
0.648902
0.669659
0.685714
0.698385
0.708303
0.715575
0.719613
0.720965
0.721056
0.720798
0.474769
0.474933
0.478213
0.486082
0.498652
0.515021
0.535323
0.559675
0.587908
0.619568
0.649615
0.673451
0.691791
0.706272
0.717579
0.725637
0.729833
0.731093
0.731117
0.730843
0.423062
0.424046
0.430567
0.443826
0.463032
0.486336
0.513645
0.544778
0.579362
0.616796
0.65136
0.678326
0.698944
0.715159
0.727771
0.736378
0.740494
0.741558
0.741506
0.741224
0.347556
0.354855
0.369938
0.393292
0.422389
0.45498
0.490854
0.529796
0.571427
0.61512
0.654518
0.684826
0.707892
0.725998
0.73984
0.748787
0.752677
0.753531
0.753432
0.753186
0.266414
0.283681
0.308119
0.34221
0.381585
0.423598
0.468102
0.515036
0.564096
0.614715
0.659835
0.694278
0.720307
0.740662
0.755892
0.764842
0.768144
0.76872
0.76865
0.768491
0.198779
0.219115
0.251282
0.294499
0.342946
0.393829
0.446697
0.501472
0.557829
0.615183
0.665753
0.704049
0.732828
0.755037
0.771018
0.779628
0.782516
0.78303
0.783021
0.782908
0.143383
0.165377
0.203065
0.252728
0.30835
0.366714
0.426997
0.488981
0.552196
0.615965
0.671725
0.71365
0.744926
0.768756
0.785485
0.794128
0.796834
0.797371
0.797404
0.797317
0.0972797
0.12045
0.161929
0.216714
0.278104
0.342648
0.409294
0.477681
0.547183
0.61698
0.677682
0.723065
0.756737
0.78219
0.799781
0.808674
0.81159
0.812027
0.812066
0.812002
0.0581965
0.0820254
0.126375
0.185208
0.251449
0.321253
0.393437
0.46754
0.542795
0.618218
0.683615
0.732329
0.768348
0.795396
0.813986
0.823387
0.826404
0.826876
0.826936
0.826896
0.0241037
0.048358
0.0949709
0.157149
0.227492
0.30188
0.378982
0.458241
0.538787
0.619492
0.689371
0.741308
0.779607
0.808252
0.827761
0.837767
0.841042
0.841554
0.841622
0.841602
-0.00649996
0.0181261
0.0665824
0.131618
0.205502
0.283908
0.365418
0.449389
0.534864
0.620584
0.69477
0.749816
0.790311
0.820485
0.840929
0.85147
0.855037
0.855649
0.855713
0.855706
-0.0345878
-0.00962937
0.0404016
0.107902
0.184898
0.266868
0.352353
0.440656
0.530752
0.621255
0.699609
0.757668
0.800261
0.831849
0.853208
0.864255
0.868073
0.8688
0.868846
0.868837
-0.0609684
-0.0356311
0.0158338
0.0854727
0.165248
0.250403
0.339485
0.431774
0.526211
0.621315
0.703759
0.764771
0.809389
0.842331
0.86444
0.875883
0.879905
0.880698
0.880728
0.880706
-0.0860236
-0.0603033
-0.00757846
0.0639823
0.146235
0.234247
0.326589
0.422556
0.521085
0.620644
0.707138
0.771092
0.817689
0.851866
0.874553
0.886309
0.890449
0.891268
0.891276
0.891233
-0.110187
-0.0839866
-0.0302303
0.043183
0.127638
0.218215
0.313523
0.41288
0.515258
0.619131
0.70968
0.776635
0.825203
0.860523
0.883723
0.895603
0.899743
0.900579
0.900551
0.900489
-0.133595
-0.106949
-0.0521423
0.0229004
0.109325
0.202203
0.300195
0.402667
0.50865
0.616705
0.711346
0.781417
0.832036
0.868463
0.892023
0.903877
0.907995
0.908783
0.908734
0.908649
-0.156386
-0.129272
-0.0734382
0.0030373
0.0912276
0.186161
0.286563
0.391872
0.501219
0.613306
0.712087
0.785463
0.838287
0.875846
0.89965
0.911349
0.915305
0.916016
0.915943
0.91584
-0.178699
-0.151051
-0.094228
-0.0164466
0.0733083
0.170073
0.272631
0.380505
0.492952
0.608888
0.711849
0.788775
0.844074
0.882863
0.906787
0.918136
0.921809
0.922401
0.922286
0.922163
-0.200569
-0.172291
-0.114561
-0.0355608
0.0555879
0.153959
0.258431
0.368595
0.483862
0.603418
0.710571
0.791325
0.849478
0.889703
0.91365
0.924402
0.927594
0.928
0.927848
0.927718
-0.221845
-0.192972
-0.134372
-0.054288
0.0380891
0.137875
0.244015
0.356203
0.473996
0.596908
0.708182
0.793046
0.854513
0.896573
0.920572
0.930409
0.93281
0.93291
0.932718
0.932591
-0.242514
-0.213071
-0.153655
-0.0725855
0.0208613
0.121872
0.229463
0.3434
0.463423
0.589376
0.704621
0.79382
0.859125
0.903613
0.92799
0.936694
0.937778
0.937236
0.93697
0.936907
-0.262643
-0.232559
-0.172391
-0.0904337
0.00396223
0.106027
0.214856
0.330282
0.452225
0.580873
0.699833
0.793494
0.863146
0.910791
0.936325
0.944164
0.94338
0.941387
0.940798
0.941039
-0.28207
-0.251418
-0.190527
-0.107777
-0.0125549
0.0904181
0.200285
0.316955
0.440512
0.571487
0.693794
0.791883
0.866304
0.917798
0.945644
0.953876
0.951598
0.947195
0.944828
0.944606
-0.300888
-0.269639
-0.208085
-0.124646
-0.0287239
0.0750033
0.185696
0.303363
0.42822
0.561145
0.686369
0.78871
0.868302
0.924157
0.955381
0.966226
0.964856
0.957924
0.950222
0.936408
-0.319026
-0.287212
-0.225179
-0.141243
-0.0448241
0.0594586
0.170682
0.28904
0.414833
0.549238
0.676944
0.783235
0.868634
0.929244
0.963964
0.979233
0.979322
0.966251
0.945992
0.934991
-0.336315
-0.304278
-0.241622
-0.157373
-0.0605031
0.0441222
0.155467
0.274303
0.400643
0.536003
0.665551
0.774935
0.866403
0.931872
0.967301
0.982409
0.984735
0.960621
0.893135
0.862953
-0.352094
-0.322099
-0.257097
-0.17256
-0.0749644
0.0294928
0.140365
0.259377
0.385865
0.521558
0.6521
0.763464
0.860093
0.931293
0.960205
0.970266
0.957177
0.901819
0.832629
0.790118
-0.407141
-0.33782
-0.271108
-0.187934
-0.0898507
0.014095
0.125306
0.243976
0.37012
0.505425
0.635953
0.748101
0.845691
0.923567
0.926359
0.926997
0.874572
0.802544
0.725267
0.682284
-0.36884
-0.352889
-0.292028
-0.207768
-0.111895
-0.00799226
0.102193
0.220225
0.345403
0.479353
0.608083
0.718817
0.809014
0.892271
0.876549
0.759913
0.652578
0.577931
0.503709
0.533308
-0.399415
-0.370283
-0.308531
-0.22511
-0.129264
-0.0254792
0.0849767
0.202373
0.326488
0.458652
0.584629
0.691195
0.771732
0.816139
0.765725
0.613741
0.483871
0.391102
0.291612
0.340818
-0.422978
-0.390922
-0.328003
-0.244448
-0.148483
-0.0448022
0.0655674
0.182128
0.304843
0.434604
0.556861
0.657199
0.72877
0.738373
0.629485
0.454475
0.30009
0.180001
0.0480847
0.080429
-0.44602
-0.412457
-0.348382
-0.263915
-0.167875
-0.0643504
0.0454885
0.161081
0.282196
0.409166
0.526714
0.619191
0.675246
0.653053
0.492294
0.294264
0.102709
-0.0661453
-0.25523
-0.274247
-0.468476
-0.434478
-0.369526
-0.284289
-0.188119
-0.0848235
0.0243571
0.138854
0.258104
0.381872
0.493974
0.578472
0.61471
0.555873
0.361697
0.14977
-0.0684533
-0.25839
-0.500736
-0.798004
-0.491236
-0.457238
-0.391758
-0.306044
-0.209698
-0.106579
0.00201343
0.115375
0.232645
0.352932
0.45928
0.535181
0.55005
0.439884
0.248036
0.0368438
-0.168366
-0.341324
-0.411166
-0.490085
-0.515254
-0.481195
-0.415424
-0.329493
-0.233104
-0.130256
-0.0223466
0.0897045
0.204671
0.320939
0.421108
0.485753
0.475492
0.331641
0.147009
-0.0451291
-0.208954
-0.302492
-0.326717
-0.342578
-0.540833
-0.506651
-0.440695
-0.354711
-0.258468
-0.156065
-0.0490803
0.0613556
0.173594
0.285192
0.378644
0.428997
0.400967
0.231152
0.0554935
-0.111546
-0.238998
-0.278317
-0.291177
-0.292494
-0.568176
-0.533781
-0.467638
-0.381696
-0.28574
-0.184012
-0.0782075
0.0302782
0.139349
0.245695
0.331522
0.3674
0.319665
0.138423
-0.0281431
-0.177779
-0.254665
-0.271647
-0.272937
-0.272734
-0.597345
-0.562652
-0.49628
-0.41045
-0.314941
-0.214088
-0.109733
-0.00354257
0.10195
0.202523
0.279848
0.303849
0.220043
0.0538802
-0.104378
-0.227771
-0.264602
-0.262912
-0.26194
-0.261312
-0.628058
-0.593085
-0.526522
-0.440888
-0.345985
-0.24624
-0.143626
-0.0400799
0.0614374
0.155785
0.224463
0.23168
0.129523
-0.0245122
-0.164546
-0.241249
-0.251491
-0.254005
-0.254636
-0.254339
-0.659771
-0.624643
-0.55811
-0.472787
-0.378691
-0.280314
-0.179738
-0.0792022
0.0179957
0.105825
0.165828
0.157788
0.0483693
-0.0905208
-0.207998
-0.239755
-0.248211
-0.249577
-0.249321
-0.249023
-0.692022
-0.656778
-0.590604
-0.505756
-0.41272
-0.315996
-0.217791
-0.120623
-0.02809
0.0533397
0.103034
0.0877512
-0.0265864
-0.143369
-0.236518
-0.254007
-0.245735
-0.245027
-0.245079
-0.244863
-0.723915
-0.688771
-0.623132
-0.539213
-0.447536
-0.35282
-0.257344
-0.163864
-0.0763486
-0.00102408
0.0388256
0.023069
-0.0930068
-0.183077
-0.234849
-0.246709
-0.244535
-0.243467
-0.242979
-0.242772
-0.753908
-0.719455
-0.654734
-0.572242
-0.482386
-0.390099
-0.297755
-0.208247
-0.12598
-0.0566553
-0.0201772
-0.0484894
-0.149083
-0.221641
-0.220138
-0.239674
-0.244639
-0.243241
-0.242609
-0.24222
-0.780393
-0.747025
-0.684285
-0.603669
-0.516247
-0.426916
-0.338176
-0.252933
-0.175848
-0.112656
-0.0763602
-0.117396
-0.201847
-0.2546
-0.264584
-0.257941
-0.252811
-0.249922
-0.248823
-0.248145
-0.801263
-0.769613
-0.709765
-0.632096
-0.547858
-0.462149
-0.377544
-0.296919
-0.22481
-0.167637
-0.133729
-0.171669
-0.245711
-0.327716
-0.339753
-0.301639
-0.275579
-0.267494
-0.264206
-0.262587
-0.81429
-0.785342
-0.729251
-0.655669
-0.575743
-0.494508
-0.41468
-0.339035
-0.271819
-0.219747
-0.188071
-0.210953
-0.258893
-0.354075
-0.332388
-0.299691
-0.288269
-0.281203
-0.276624
-0.27551
-0.816863
-0.791966
-0.740821
-0.67259
-0.598237
-0.522645
-0.448312
-0.378084
-0.315747
-0.267487
-0.231626
-0.226269
-0.205859
-0.249126
-0.242754
-0.243558
-0.247024
-0.24922
-0.251169
-0.251658
-0.806773
-0.786738
-0.742314
-0.681278
-0.613886
-0.545077
-0.477199
-0.412846
-0.355552
-0.310502
-0.264473
-0.225796
-0.119842
0.00401117
-0.0711574
-0.166099
-0.212514
-0.232437
-0.240445
-0.242381
-0.782045
-0.766992
-0.731915
-0.6805
-0.62171
-0.560841
-0.500198
-0.442192
-0.390471
-0.349165
-0.296173
-0.258975
-0.136274
0.0392814
-0.0837698
-0.213166
-0.27598
-0.301088
-0.310668
-0.314471
-0.745227
-0.73554
-0.710442
-0.6704
-0.621664
-0.569628
-0.516647
-0.465193
-0.419436
-0.384736
-0.358299
-0.393401
-0.546636
-0.792519
-0.837365
-0.665749
-0.540628
-0.489846
-0.475323
-0.472676
-0.703031
-0.697557
-0.682726
-0.653745
-0.615583
-0.572136
-0.526424
-0.481034
-0.440065
-0.411435
-0.397187
-0.522904
-0.753585
-0.995145
-0.950797
-0.703631
-0.56542
-0.503783
-0.482815
-0.47532
-0.665209
-0.661932
-0.654909
-0.635858
-0.606321
-0.56995
-0.530292
-0.488978
-0.450046
-0.419205
-0.407819
-0.401977
-0.32451
-0.194584
-0.0750442
-0.0982707
-0.198133
-0.266274
-0.280426
-0.285295
-0.638164
-0.636182
-0.632625
-0.620887
-0.597606
-0.565973
-0.529794
-0.489883
-0.448796
-0.409976
-0.391931
-0.344813
-0.273994
-0.236405
-0.311855
-0.481956
-0.60626
-0.599915
-0.524347
-0.487775
-0.617378
-0.61663
-0.615466
-0.609679
-0.592019
-0.563353
-0.527409
-0.486457
-0.44128
-0.397412
-0.369002
-0.351416
-0.281118
-0.260839
-0.266748
-0.314827
-0.393662
-0.411995
-0.375218
-0.355507
-0.605326
-0.605029
-0.604427
-0.601822
-0.589276
-0.561948
-0.524353
-0.479799
-0.430004
-0.373108
-0.325985
-0.281952
-0.198073
-0.125537
-0.11222
-0.138949
-0.11915
-0.0467463
0.0288324
0.0649008
-0.597359
-0.597186
-0.596648
-0.595818
-0.588337
-0.56265
-0.522556
-0.472958
-0.413609
-0.343228
-0.270595
-0.176545
-0.0233969
0.125509
0.24672
0.356088
0.499406
0.666537
0.781899
0.827323
-0.592998
-0.592704
-0.591909
-0.591455
-0.588185
-0.566221
-0.523245
-0.467074
-0.398757
-0.318629
-0.217258
-0.105854
0.109329
0.398109
0.7055
0.999832
1.25619
1.4421
1.5465
1.58045
-0.59267
-0.59283
-0.593301
-0.593913
-0.594086
-0.57356
-0.526344
-0.464056
-0.389288
-0.295367
-0.185616
-0.0808383
0.148074
0.475001
0.865448
1.22532
1.51404
1.69313
1.77417
1.79572
-0.590581
-0.591943
-0.595472
-0.600952
-0.603069
-0.580367
-0.530984
-0.467291
-0.386827
-0.286602
-0.175416
-0.0600211
0.103062
0.437392
0.787706
1.1053
1.3506
1.49277
1.55379
1.56849
-0.592954
-0.593317
-0.589285
-0.579446
-0.571296
-0.564743
-0.536192
-0.477549
-0.391671
-0.287081
-0.178134
-0.0680554
0.0563516
0.310311
0.603465
0.852298
1.04004
1.14255
1.18432
1.19331
-0.628426
-0.62446
-0.604271
-0.56421
-0.539049
-0.557051
-0.556952
-0.496325
-0.402422
-0.293987
-0.188566
-0.0903208
-0.00157169
0.180892
0.403252
0.587022
0.723145
0.793396
0.820797
0.824965
-0.708434
-0.708067
-0.714578
-0.727149
-0.720177
-0.706183
-0.642178
-0.532197
-0.415907
-0.300283
-0.200254
-0.117957
-0.0523468
0.0787115
0.231835
0.357587
0.448613
0.494623
0.510385
0.512812
-0.844547
-0.864576
-0.912426
-0.952054
-0.947814
-0.894225
-0.742947
-0.571511
-0.423866
-0.302903
-0.209746
-0.13864
-0.0856601
0.00286292
0.101865
0.179512
0.230733
0.254909
0.264026
0.26396
-0.906794
-0.931157
-0.970631
-1.00055
-0.99597
-0.930073
-0.756206
-0.565075
-0.41127
-0.293032
-0.210746
-0.151686
-0.10626
-0.047493
0.00299195
0.0403933
0.0612921
0.0698844
0.0725921
0.0727739
-0.774863
-0.796682
-0.832776
-0.864691
-0.86339
-0.79237
-0.636927
-0.486403
-0.360732
-0.265502
-0.201189
-0.157813
-0.125307
-0.0853631
-0.0598739
-0.0491819
-0.0505041
-0.0532282
-0.0520712
-0.0510822
-0.461594
-0.478604
-0.509509
-0.542937
-0.556049
-0.519165
-0.438913
-0.353812
-0.280351
-0.221288
-0.182011
-0.159636
-0.142387
-0.117255
-0.0988055
-0.0942193
-0.0972166
-0.0992948
-0.0980653
-0.0973166
-0.122986
-0.131877
-0.151625
-0.181654
-0.211071
-0.224163
-0.225045
-0.211659
-0.191167
-0.168591
-0.156436
-0.158055
-0.159417
-0.132571
-0.11188
-0.0999468
-0.0956312
-0.0929944
-0.0910823
-0.0908146
0.102612
0.0980986
0.0842588
0.0568397
0.0157496
-0.031308
-0.0689827
-0.0954548
-0.109159
-0.114471
-0.122544
-0.141839
-0.152338
-0.121848
-0.0941125
-0.0769594
-0.0676328
-0.0631053
-0.0612667
-0.0617861
0.198015
0.195522
0.18544
0.161845
0.122311
0.0727902
0.0241793
-0.0164006
-0.04505
-0.0635157
-0.078493
-0.0981151
-0.104045
-0.0793902
-0.0589008
-0.0460023
-0.0371752
-0.0330302
-0.032242
-0.0329769
0.214261
0.212571
0.205378
0.187721
0.157086
0.116982
0.0739181
0.0343634
0.0031615
-0.0175972
-0.0288853
-0.0337527
-0.0271026
-0.0166286
-0.0112562
-0.00831716
-0.00617431
-0.00499674
-0.00509161
-0.00586078
0.196958
0.195887
0.191158
0.179236
0.158054
0.129234
0.096175
0.0640889
0.037471
0.0209212
0.0196294
0.0306299
0.0464198
0.041872
0.0324993
0.0268514
0.0241369
0.0232226
0.0224389
0.0214935
0.169716
0.169121
0.166241
0.15872
0.144932
0.125442
0.102018
0.0784519
0.0590222
0.0491566
0.0546709
0.0733639
0.0913482
0.07959
0.0638449
0.0534003
0.0477399
0.0452495
0.0437702
0.0428612
0.141292
0.141093
0.139477
0.13501
0.126481
0.113987
0.0985187
0.0827194
0.0701777
0.0662089
0.0762798
0.0954051
0.10842
0.0959391
0.0809067
0.0704778
0.0643744
0.0598657
0.0574736
0.0566324
0.114676
0.114559
0.113724
0.111228
0.106208
0.0986139
0.0890448
0.0793746
0.0727
0.0736027
0.0862376
0.102737
0.109413
0.0980836
0.0867499
0.0776996
0.0713902
0.0669074
0.0645248
0.0639696
0.0898233
0.0898569
0.0894953
0.0882422
0.0855492
0.0812299
0.0758312
0.0706891
0.0683934
0.0730225
0.0874532
0.103937
0.108449
0.0970743
0.0871658
0.0800042
0.0749585
0.0707913
0.0690444
0.0686856
0.0666122
0.0666974
0.0666219
0.0661462
0.0649063
0.0627352
0.0601033
0.057943
0.0584464
0.065177
0.0815269
0.100965
0.107459
0.0932987
0.0837375
0.0787225
0.0755379
0.0732979
0.0721516
0.0716442
0.0447461
0.0448364
0.0448875
0.04481
0.0443997
0.0435782
0.0425159
0.0420791
0.0438245
0.0508471
0.0661095
0.0851414
0.0932005
0.0831088
0.0721782
0.0686055
0.0681053
0.0676981
0.0669087
0.0661621
0.0240628
0.0241429
0.0242415
0.02434
0.0243243
0.0241684
0.023973
0.0241134
0.0254896
0.0303194
0.0400773
0.0515845
0.0562369
0.0486453
0.0447269
0.0446514
0.0473578
0.0484034
0.0473794
0.0464034
0.00445699
0.00450057
0.00448659
0.00458425
0.00483985
0.00499257
0.00502343
0.00500041
0.00508658
0.00515769
0.00568633
0.00499336
0.00926648
0.011475
0.0100611
0.0123558
0.0108346
0.00863325
0.00884432
0.00898242
-0.0283085
0.137978
0.331952
0.501159
0.636064
0.741935
0.829278
0.903678
0.937687
0.914435
0.272452
0.392624
0.521829
0.63335
0.727179
0.804682
0.867411
0.911979
0.934288
0.946445
0.489947
0.572311
0.660592
0.738454
0.80536
0.86132
0.905839
0.938395
0.96198
0.980018
0.649848
0.708828
0.770001
0.826784
0.876117
0.918027
0.952476
0.979989
1.0027
1.02103
0.774653
0.817522
0.863266
0.906843
0.945355
0.979008
1.00783
1.03185
1.05218
1.07004
0.878578
0.911313
0.949281
0.984684
1.0172
1.04636
1.07185
1.0933
1.11112
1.12848
0.970883
0.999496
1.03337
1.06543
1.09531
1.12243
1.14613
1.16582
1.18131
1.19839
1.05933
1.08848
1.12243
1.15443
1.18399
1.21054
1.23338
1.25186
1.26521
1.28225
1.15455
1.18773
1.22434
1.25789
1.28791
1.31408
1.33602
1.35328
1.36514
1.38254
1.2695
1.30731
1.34593
1.38016
1.40949
1.43423
1.45459
1.47047
1.48193
1.5
1.41441
1.45294
1.48907
1.51975
1.54542
1.5675
1.58655
1.60208
1.6145
1.6325
1.58947
1.62109
1.64726
1.6697
1.68967
1.70838
1.7261
1.74257
1.75792
1.77599
1.77807
1.79527
1.8103
1.82653
1.84243
1.85696
1.87016
1.88409
1.90163
1.92178
1.95978
1.96932
1.98086
1.99167
2.00095
2.01053
2.02131
2.03268
2.04404
2.05939
2.16701
2.17068
2.15573
2.14092
2.13464
2.14032
2.15879
2.1891
2.22128
2.24793
2.47333
2.33847
2.26183
2.21944
2.20202
2.20599
2.23338
2.2898
2.39241
2.61678
0.784121
0.781993
0.77751
0.768887
0.756665
0.74454
0.734317
0.726431
0.720826
0.71759
0.717256
0.720015
0.725135
0.732369
0.741764
0.753308
0.765962
0.776999
0.783112
0.786167
0.708569
0.714416
0.72075
0.725245
0.727717
0.727397
0.724666
0.720865
0.717368
0.715127
0.715003
0.717221
0.7209
0.725201
0.729015
0.730904
0.729971
0.726492
0.721331
0.71471
0.700134
0.702431
0.705836
0.708834
0.710912
0.712412
0.713174
0.712868
0.711857
0.710994
0.711193
0.712643
0.714475
0.715793
0.715982
0.715098
0.713553
0.71122
0.707958
0.705039
0.69461
0.695696
0.69753
0.699911
0.701938
0.70337
0.704398
0.705161
0.705579
0.705824
0.706342
0.707174
0.707791
0.707871
0.707468
0.706626
0.705162
0.703081
0.700998
0.699615
0.689389
0.690052
0.691161
0.692868
0.694654
0.696291
0.697595
0.698623
0.699524
0.70034
0.7011
0.70168
0.701895
0.701744
0.701188
0.700141
0.698719
0.69718
0.695865
0.695086
0.684391
0.684851
0.685638
0.686938
0.68843
0.689953
0.691427
0.692739
0.693896
0.694981
0.695932
0.696532
0.696702
0.696446
0.695762
0.694782
0.693664
0.692537
0.691626
0.69111
0.679534
0.679878
0.68049
0.681561
0.682859
0.68424
0.685689
0.68715
0.688547
0.68986
0.691012
0.691741
0.691947
0.691694
0.691111
0.690346
0.689505
0.688645
0.687977
0.6876
0.674764
0.675031
0.675526
0.676437
0.677611
0.678915
0.680321
0.681827
0.683394
0.684952
0.686347
0.687261
0.687598
0.687504
0.687131
0.686586
0.68595
0.68532
0.684833
0.684545
0.669999
0.670211
0.670622
0.671424
0.672518
0.673775
0.675173
0.676727
0.678428
0.680227
0.681914
0.683095
0.683675
0.683826
0.683685
0.683364
0.682936
0.682498
0.682152
0.681927
0.66515
0.665321
0.665673
0.666402
0.667451
0.668687
0.670114
0.671754
0.673615
0.675672
0.677708
0.679251
0.680158
0.680599
0.680714
0.680625
0.680411
0.680148
0.679918
0.679739
0.660129
0.660267
0.660577
0.661262
0.662295
0.663556
0.66505
0.666819
0.668893
0.671266
0.673728
0.675721
0.677021
0.6778
0.678205
0.678364
0.678362
0.678269
0.678138
0.677994
0.654844
0.654956
0.655239
0.655903
0.656955
0.658286
0.659894
0.661845
0.6642
0.666972
0.669958
0.672493
0.674257
0.675426
0.67616
0.676589
0.676808
0.676886
0.676842
0.676725
0.649201
0.649289
0.649556
0.650226
0.651332
0.652776
0.65455
0.656752
0.659466
0.662743
0.666372
0.669558
0.671871
0.673493
0.674598
0.675344
0.67581
0.676048
0.676081
0.675985
0.643089
0.643156
0.643416
0.644114
0.645313
0.646917
0.648921
0.651453
0.654625
0.658531
0.662946
0.666914
0.669879
0.672034
0.673565
0.674665
0.675404
0.675817
0.675923
0.675844
0.636377
0.636425
0.636687
0.637435
0.638767
0.640587
0.642896
0.645849
0.649601
0.654284
0.659654
0.664562
0.668303
0.671087
0.67312
0.674614
0.675671
0.676272
0.67645
0.676385
0.628912
0.628941
0.629209
0.63003
0.631539
0.633639
0.636338
0.639828
0.644305
0.649945
0.656474
0.662509
0.667172
0.670696
0.673324
0.675294
0.676707
0.677511
0.67776
0.677704
0.620493
0.620508
0.62078
0.6217
0.623444
0.62589
0.62909
0.633258
0.638639
0.645454
0.653389
0.66077
0.666524
0.67092
0.674251
0.676787
0.678605
0.679633
0.679954
0.679906
0.610816
0.610801
0.611131
0.612193
0.614222
0.617125
0.620963
0.625985
0.632494
0.640755
0.650389
0.659371
0.666412
0.671833
0.675987
0.679188
0.681475
0.682747
0.683141
0.683096
0.599585
0.599546
0.599921
0.601178
0.603579
0.60707
0.611719
0.617823
0.625744
0.635787
0.647468
0.658345
0.666889
0.673513
0.678632
0.682593
0.685422
0.686955
0.687418
0.687373
0.586315
0.586249
0.586704
0.588214
0.591101
0.595361
0.60106
0.608553
0.618257
0.630495
0.644631
0.657733
0.66802
0.676027
0.682271
0.687109
0.690539
0.692342
0.692867
0.692816
0.570355
0.57026
0.57084
0.572703
0.576242
0.58153
0.588622
0.597928
0.609902
0.624849
0.641913
0.657598
0.669873
0.679449
0.686974
0.692803
0.696886
0.698956
0.699526
0.699463
0.550762
0.55064
0.551423
0.553802
0.558259
0.564974
0.57397
0.585692
0.600587
0.618872
0.639392
0.658023
0.672531
0.683858
0.692783
0.699716
0.704475
0.706782
0.707372
0.707289
0.526111
0.525973
0.527092
0.530272
0.536119
0.544922
0.556617
0.571626
0.590293
0.612663
0.637201
0.659123
0.676067
0.689297
0.69973
0.707842
0.713242
0.71572
0.716292
0.71618
0.494087
0.493971
0.495703
0.500272
0.508425
0.520484
0.536139
0.555658
0.579148
0.60642
0.635528
0.661037
0.680563
0.695796
0.707816
0.717095
0.723017
0.725553
0.726061
0.725915
0.450525
0.450574
0.453653
0.461113
0.473543
0.490907
0.512423
0.538021
0.56752
0.600512
0.634657
0.663935
0.686105
0.70336
0.716943
0.727297
0.733505
0.735929
0.736322
0.736141
0.387628
0.388838
0.396365
0.410277
0.430522
0.456328
0.486097
0.519435
0.556044
0.595407
0.63487
0.667968
0.692735
0.711926
0.726926
0.738042
0.74424
0.746315
0.74654
0.746338
0.313075
0.314849
0.329253
0.353136
0.384326
0.420102
0.458871
0.500456
0.544673
0.59104
0.636628
0.674404
0.702473
0.724074
0.740716
0.752544
0.758522
0.760307
0.760492
0.760382
0.236173
0.242382
0.26365
0.297793
0.339401
0.384851
0.432581
0.482457
0.534358
0.587837
0.639721
0.682309
0.713751
0.73783
0.756304
0.768485
0.773818
0.775117
0.775235
0.775197
0.173256
0.181779
0.207616
0.248783
0.298555
0.352255
0.408064
0.465706
0.524956
0.585291
0.643203
0.690325
0.724889
0.751127
0.770728
0.783092
0.788243
0.7894
0.789521
0.789539
0.122082
0.131202
0.160591
0.207002
0.262935
0.323292
0.385941
0.450443
0.516393
0.583141
0.646784
0.698221
0.735716
0.763988
0.784877
0.79765
0.802592
0.803846
0.80408
0.804146
0.0792672
0.0886674
0.120505
0.170917
0.231912
0.297789
0.366236
0.43674
0.508734
0.581426
0.650476
0.706037
0.746358
0.776616
0.798741
0.812041
0.817279
0.818759
0.819012
0.819099
0.0424447
0.0519519
0.0856246
0.139241
0.204421
0.275013
0.348524
0.424359
0.501836
0.580024
0.654178
0.713693
0.756761
0.788983
0.81243
0.826483
0.832133
0.833736
0.83398
0.834059
0.00993858
0.0194762
0.0545553
0.110878
0.179568
0.254229
0.332223
0.412852
0.495356
0.578685
0.657702
0.721022
0.766748
0.800856
0.825543
0.840432
0.846533
0.848287
0.84855
0.848619
-0.0195397
-0.00996874
0.0262638
0.084921
0.156619
0.234843
0.316824
0.401814
0.488975
0.577159
0.660835
0.727832
0.776117
0.812011
0.837916
0.853513
0.860125
0.861998
0.862264
0.862311
-0.0468766
-0.0372654
-3.05811e-05
0.0606536
0.135025
0.216406
0.301961
0.390924
0.482412
0.575196
0.66338
0.733965
0.784728
0.822333
0.849332
0.865578
0.872602
0.874572
0.874831
0.874848
-0.0726439
-0.0629762
-0.0248014
0.0375922
0.114375
0.198575
0.28735
0.379939
0.475451
0.572621
0.665212
0.73935
0.792537
0.83177
0.859756
0.876478
0.883756
0.885825
0.886073
0.886051
-0.0973402
-0.0875285
-0.0484939
0.0154454
0.0943869
0.181102
0.272785
0.368691
0.467958
0.569313
0.666231
0.743944
0.799561
0.840349
0.8692
0.886285
0.893693
0.895748
0.896003
0.895958
-0.12123
-0.111209
-0.0714374
-0.00598675
0.0748711
0.163831
0.258141
0.35708
0.459828
0.565174
0.666366
0.747721
0.805838
0.848171
0.877775
0.895068
0.902459
0.904501
0.904721
0.904658
-0.144425
-0.134203
-0.0936844
-0.0268518
0.0557089
0.146685
0.243348
0.345038
0.451004
0.560134
0.665555
0.750673
0.811435
0.855374
0.885636
0.902999
0.910282
0.912233
0.912405
0.912315
-0.167104
-0.156593
-0.115332
-0.0472365
0.0368442
0.129614
0.228378
0.33255
0.441468
0.554163
0.663737
0.752777
0.816413
0.862108
0.893001
0.910265
0.91729
0.919084
0.9192
0.919089
-0.189223
-0.178448
-0.136478
-0.0671917
0.0182617
0.11262
0.213254
0.31964
0.431231
0.547238
0.660862
0.753985
0.820823
0.868527
0.900051
0.917022
0.923599
0.925149
0.925178
0.925044
-0.21085
-0.199782
-0.157056
-0.0867084
-2.67647e-05
0.0957292
0.198008
0.306357
0.420334
0.53937
0.656887
0.754229
0.824655
0.874759
0.907049
0.923524
0.929335
0.930478
0.930404
0.930256
-0.231827
-0.220534
-0.177066
-0.105747
-0.0179817
0.0790048
0.182699
0.292763
0.408842
0.530609
0.651779
0.753422
0.827841
0.880876
0.914298
0.930181
0.934822
0.935229
0.934969
0.934831
-0.252294
-0.240666
-0.1965
-0.124298
-0.0355762
0.0624812
0.167412
0.278933
0.396836
0.521024
0.645539
0.751455
0.830241
0.886829
0.922051
0.937613
0.940724
0.939729
0.938962
0.938825
-0.272091
-0.260158
-0.215334
-0.142323
-0.0527366
0.046239
0.152226
0.264985
0.384421
0.510674
0.638197
0.748214
0.831652
0.892408
0.930315
0.946505
0.948379
0.945206
0.942845
0.942031
-0.291282
-0.279055
-0.233516
-0.15977
-0.0694302
0.0303446
0.137221
0.250994
0.371705
0.499691
0.629814
0.743586
0.831824
0.897225
0.938613
0.957008
0.959358
0.954599
0.948164
0.940009
-0.309785
-0.297315
-0.251141
-0.176798
-0.085863
0.0145314
0.122071
0.236575
0.358255
0.487593
0.619883
0.737046
0.830302
0.900991
0.946363
0.968545
0.974114
0.969253
0.958492
0.953601
-0.327555
-0.314862
-0.268194
-0.19338
-0.102044
-0.0011949
0.106787
0.221704
0.344021
0.474255
0.608192
0.728191
0.826276
0.902916
0.95162
0.976961
0.984794
0.983326
0.945282
0.893523
-0.344306
-0.330919
-0.284525
-0.209446
-0.118076
-0.0169939
0.0913119
0.206495
0.329053
0.459725
0.59465
0.716743
0.818584
0.902353
0.952085
0.973573