/*--------------------------------*- C++ -*----------------------------------*\
  =========                 |
  \\      /  F ield         | OpenFOAM: The Open Source CFD Toolbox
   \\    /   O peration     | Website:  https://openfoam.org
    \\  /    A nd           | Version:  9
     \\/     M anipulation  |
\*---------------------------------------------------------------------------*/
FoamFile
{
    format      ascii;
    class       volScalarField;
    location    "46";
    object      p;
}
// * * * * * * * * * * * * * * * * * * * * * * * * * * * * * * * * * * * * * //

dimensions      [0 2 -2 0 0 0 0];

internalField   nonuniform List<scalar> 
8800
(
0.827847
0.780058
0.741366
0.712368
0.691499
0.67666
0.666053
0.658561
0.653724
0.651644
0.652886
0.657054
0.663682
0.672986
0.685756
0.703482
0.728255
0.762192
0.804739
0.863441
0.659102
0.66678
0.67425
0.677555
0.676048
0.670964
0.66447
0.658382
0.653642
0.650778
0.650472
0.652952
0.65742
0.663348
0.670105
0.676377
0.680011
0.679272
0.673847
0.665153
0.637516
0.643675
0.647799
0.650738
0.65278
0.653376
0.652258
0.650138
0.648102
0.647169
0.648102
0.650457
0.653236
0.655401
0.655995
0.654787
0.652437
0.649038
0.644478
0.640717
0.631728
0.634377
0.637124
0.639521
0.641148
0.642299
0.643026
0.643126
0.642808
0.642729
0.643448
0.644588
0.645403
0.645448
0.644823
0.64372
0.641894
0.639316
0.636909
0.635405
0.626376
0.627799
0.629573
0.631598
0.633372
0.634701
0.635674
0.63645
0.637037
0.637566
0.638178
0.638639
0.638708
0.638395
0.637678
0.636413
0.634705
0.632846
0.631534
0.630703
0.621337
0.622257
0.623492
0.62505
0.62667
0.62818
0.629446
0.630487
0.631419
0.632271
0.632913
0.633196
0.633115
0.632644
0.631737
0.630516
0.629172
0.627899
0.62707
0.62652
0.616479
0.617147
0.618103
0.619395
0.62079
0.622231
0.623647
0.62494
0.626099
0.627155
0.627918
0.628229
0.628096
0.627545
0.626704
0.625729
0.624694
0.623753
0.623162
0.622757
0.611755
0.612271
0.613047
0.614166
0.615427
0.61678
0.618199
0.619635
0.621016
0.62229
0.623222
0.623621
0.623532
0.623092
0.622444
0.621681
0.620876
0.620172
0.619731
0.619415
0.607097
0.607507
0.608156
0.609149
0.610336
0.611639
0.613051
0.614564
0.616129
0.617649
0.618802
0.619367
0.619449
0.619208
0.618765
0.618201
0.61759
0.617071
0.616739
0.616484
0.602422
0.602756
0.603316
0.604229
0.605365
0.606649
0.60809
0.60969
0.611425
0.613212
0.614653
0.615482
0.615813
0.615801
0.615568
0.61521
0.614779
0.614412
0.614163
0.61395
0.597648
0.597924
0.598422
0.599287
0.600403
0.601706
0.603212
0.604938
0.60688
0.608972
0.610778
0.611953
0.612585
0.612833
0.612826
0.612669
0.612414
0.612179
0.611996
0.611814
0.592689
0.59292
0.593379
0.594227
0.595362
0.596728
0.598341
0.600245
0.602459
0.604931
0.607187
0.608776
0.609756
0.610299
0.61054
0.610587
0.610505
0.610387
0.610259
0.610098
0.587461
0.587657
0.588096
0.588957
0.590153
0.591626
0.593401
0.595551
0.598117
0.601073
0.603875
0.605951
0.607335
0.60821
0.608726
0.608984
0.609081
0.609073
0.608991
0.608847
0.581872
0.582039
0.582475
0.583379
0.584677
0.586307
0.58831
0.590785
0.593799
0.59736
0.600826
0.603484
0.605342
0.606596
0.607419
0.607932
0.608204
0.608297
0.608254
0.60812
0.575817
0.575959
0.576406
0.577381
0.578827
0.580671
0.582975
0.585863
0.589442
0.593748
0.598022
0.601384
0.603807
0.605508
0.606682
0.607467
0.607936
0.608136
0.60813
0.608004
0.569167
0.569283
0.569755
0.570832
0.572475
0.574603
0.577295
0.580709
0.58499
0.590206
0.595467
0.599681
0.602781
0.605011
0.606593
0.607684
0.608375
0.608686
0.608715
0.608592
0.561755
0.561847
0.562361
0.563575
0.565472
0.567964
0.571155
0.575244
0.580415
0.586763
0.593216
0.598436
0.602327
0.605173
0.607244
0.608696
0.609632
0.61006
0.610123
0.610001
0.553372
0.553465
0.554029
0.555395
0.55762
0.560581
0.564406
0.569339
0.575611
0.583347
0.591247
0.597682
0.602517
0.606097
0.60875
0.610627
0.611841
0.612396
0.612492
0.612367
0.543727
0.5438
0.544451
0.546033
0.548677
0.552236
0.556866
0.562863
0.570512
0.579956
0.589599
0.597477
0.603435
0.607886
0.611224
0.613599
0.615137
0.615831
0.615962
0.61583
0.532452
0.532506
0.533249
0.53514
0.538325
0.542656
0.548315
0.555668
0.565035
0.576563
0.588315
0.597911
0.605187
0.610668
0.614801
0.617774
0.619677
0.620523
0.620686
0.620544
0.51902
0.51906
0.519949
0.522243
0.526142
0.531493
0.538506
0.547616
0.559171
0.573276
0.587519
0.599103
0.607909
0.614582
0.619645
0.623306
0.625617
0.626622
0.626812
0.626657
0.502681
0.502708
0.503809
0.506671
0.511546
0.518273
0.527082
0.538462
0.552744
0.569962
0.587173
0.601094
0.611671
0.619727
0.625874
0.630325
0.63309
0.634255
0.634466
0.634292
0.482326
0.482351
0.483781
0.487489
0.49377
0.502439
0.51373
0.528145
0.545922
0.566925
0.587553
0.604074
0.616623
0.626233
0.633583
0.638943
0.642187
0.643502
0.643719
0.643521
0.456164
0.45621
0.458218
0.463317
0.471797
0.483342
0.498136
0.516577
0.538702
0.564178
0.58871
0.608138
0.622859
0.634175
0.642853
0.649182
0.652902
0.654332
0.654529
0.654302
0.421173
0.421322
0.42453
0.432207
0.444423
0.460368
0.480163
0.503905
0.53138
0.562048
0.59088
0.613411
0.630418
0.643529
0.653649
0.660953
0.665074
0.666547
0.666693
0.666434
0.371596
0.372562
0.378984
0.391984
0.41072
0.43349
0.460198
0.490653
0.52445
0.560901
0.594303
0.620027
0.639353
0.654288
0.665839
0.674009
0.678379
0.67979
0.679857
0.679566
0.298484
0.305703
0.320636
0.343627
0.372093
0.404008
0.43918
0.477386
0.518228
0.561013
0.599396
0.628633
0.650547
0.667542
0.680679
0.689709
0.694317
0.6957
0.695735
0.69548
0.219621
0.236719
0.260963
0.294579
0.333209
0.374448
0.418203
0.464417
0.512778
0.562685
0.607094
0.640837
0.666153
0.685787
0.700968
0.711007
0.715721
0.71697
0.717035
0.716907
0.153997
0.174163
0.206155
0.248712
0.296306
0.346333
0.398404
0.452459
0.508187
0.565015
0.615187
0.65316
0.681615
0.703638
0.720412
0.731025
0.735675
0.737059
0.737218
0.737169
0.100257
0.122098
0.159585
0.208542
0.263186
0.3206
0.380026
0.441278
0.503927
0.567331
0.622951
0.664864
0.696189
0.720294
0.738469
0.749955
0.755363
0.75666
0.756817
0.756811
0.0554201
0.0784495
0.119715
0.173755
0.234079
0.297585
0.363311
0.430946
0.499909
0.569423
0.630129
0.675696
0.709631
0.735699
0.755289
0.767811
0.773666
0.775063
0.775295
0.775327
0.0172013
0.04092
0.0850318
0.143106
0.208205
0.276886
0.34808
0.42138
0.496076
0.571233
0.636673
0.6856
0.72193
0.749759
0.770587
0.783873
0.790168
0.791828
0.792144
0.792198
-0.0163964
0.0077929
0.0541791
0.115558
0.184687
0.257864
0.333903
0.4123
0.492245
0.572642
0.642486
0.694514
0.732997
0.762329
0.784149
0.798028
0.804671
0.806679
0.807062
0.807115
-0.0468264
-0.0222216
0.0260303
0.0902411
0.162842
0.239949
0.320319
0.403356
0.488152
0.573456
0.647451
0.702366
0.742792
0.773433
0.795947
0.810207
0.817184
0.819415
0.819837
0.819873
-0.075004
-0.0500114
-0.000143419
0.0664731
0.142137
0.222722
0.306978
0.394256
0.483569
0.573521
0.651493
0.70918
0.75141
0.78312
0.806038
0.820631
0.827783
0.830185
0.830642
0.830662
-0.101693
-0.0762686
-0.0248991
0.0438029
0.122177
0.205862
0.293627
0.384795
0.478331
0.572723
0.654596
0.715037
0.759021
0.791672
0.815017
0.829671
0.83699
0.839499
0.83994
0.839923
-0.127216
-0.101352
-0.048847
0.0219178
0.102689
0.189153
0.280094
0.374837
0.472327
0.571008
0.656777
0.720024
0.765762
0.799309
0.823012
0.837819
0.845177
0.847693
0.848148
0.848103
-0.151974
-0.125539
-0.0719768
0.000588511
0.0834939
0.172453
0.266274
0.3643
0.465497
0.568333
0.658045
0.724209
0.771766
0.806235
0.830296
0.845209
0.852569
0.855039
0.85546
0.855397
-0.176086
-0.149202
-0.0944629
-0.0203178
0.064496
0.155692
0.252116
0.353148
0.45781
0.564677
0.658399
0.727639
0.777152
0.81263
0.837097
0.852094
0.859401
0.861792
0.862129
0.862017
-0.199658
-0.172226
-0.116453
-0.0408728
0.0456597
0.13885
0.237612
0.341377
0.449262
0.560017
0.657804
0.730327
0.782006
0.818648
0.843568
0.858598
0.865728
0.867953
0.868192
0.868031
-0.222803
-0.194771
-0.138003
-0.0610988
0.026969
0.121943
0.222794
0.329023
0.439873
0.554336
0.656206
0.732239
0.78639
0.824413
0.84982
0.864766
0.871594
0.873561
0.873696
0.873505
-0.245519
-0.216809
-0.159097
-0.0809775
0.00846617
0.105009
0.207717
0.316139
0.429682
0.547619
0.65354
0.733308
0.79031
0.830052
0.856032
0.87071
0.877019
0.878639
0.878666
0.878456
-0.267642
-0.238298
-0.179681
-0.100472
-0.00980506
0.0881225
0.192446
0.302807
0.418755
0.539891
0.649737
0.73343
0.793708
0.835672
0.862466
0.876682
0.882113
0.883207
0.883112
0.882901
-0.289145
-0.259202
-0.199733
-0.119529
-0.0277833
0.0713472
0.177078
0.28911
0.407173
0.531182
0.644747
0.732471
0.796461
0.841293
0.869456
0.883184
0.887193
0.887337
0.887044
0.886886
-0.31009
-0.279476
-0.21922
-0.138112
-0.0454036
0.0547671
0.161701
0.275153
0.39503
0.521556
0.638526
0.730287
0.798351
0.846754
0.877247
0.891051
0.893225
0.891479
0.890558
0.890662
-0.330301
-0.299095
-0.238079
-0.156152
-0.062604
0.0384658
0.146411
0.261047
0.38244
0.511108
0.631069
0.726718
0.79909
0.851639
0.885656
0.901172
0.90234
0.897875
0.89476
0.894136
-0.349866
-0.318048
-0.256327
-0.173679
-0.0794178
0.0223973
0.13115
0.246731
0.369333
0.499761
0.622239
0.721491
0.798346
0.855333
0.893841
0.913552
0.916723
0.91122
0.902177
0.887227
-0.36871
-0.336322
-0.274084
-0.190888
-0.0961358
0.0062249
0.115499
0.231718
0.355164
0.486867
0.611374
0.713793
0.79548
0.856932
0.899721
0.92527
0.931449
0.919917
0.900586
0.887368
-0.386657
-0.354059
-0.291154
-0.207552
-0.11243
-0.0097034
0.0996851
0.216335
0.340242
0.472694
0.598576
0.703211
0.789795
0.8553
0.898686
0.923855
0.933524
0.911786
0.843372
0.812282
-0.403044
-0.372495
-0.307205
-0.223097
-0.12756
-0.0248834
0.0840151
0.200809
0.324786
0.45737
0.583798
0.689491
0.780037
0.84988
0.886122
0.9046
0.898648
0.846381
0.777099
0.734319
-0.45932
-0.388721
-0.321864
-0.238592
-0.143091
-0.0407575
0.0684253
0.184862
0.308432
0.440453
0.566464
0.6721
0.762557
0.839185
0.845278
0.852359
0.808246
0.74045
0.664466
0.622058
-0.420651
-0.404452
-0.343618
-0.260069
-0.165752
-0.0635757
0.0446036
0.160373
0.282902
0.413328
0.537009
0.640469
0.722538
0.802199
0.792893
0.684333
0.581472
0.509878
0.437266
0.469287
-0.452038
-0.422463
-0.360616
-0.277822
-0.183448
-0.0815154
0.026923
0.142044
0.263497
0.392068
0.512787
0.611936
0.685539
0.727368
0.680742
0.535875
0.410372
0.320399
0.222201
0.273675
-0.476259
-0.443741
-0.380627
-0.297578
-0.203109
-0.101268
0.00709605
0.12139
0.241452
0.367593
0.484512
0.57764
0.642241
0.650786
0.546671
0.375887
0.224745
0.107108
-0.0235489
0.0101029
-0.499968
-0.465902
-0.401596
-0.317642
-0.222988
-0.121258
-0.0133919
0.099956
0.218438
0.341794
0.454055
0.540252
0.589406
0.566986
0.410954
0.216143
0.026681
-0.140785
-0.329521
-0.346646
-0.523031
-0.488544
-0.42334
-0.338606
-0.243722
-0.142168
-0.0349223
0.0773662
0.194024
0.314239
0.421216
0.500068
0.530721
0.472759
0.281916
0.0725764
-0.144266
-0.333558
-0.576168
-0.877704
-0.546377
-0.511897
-0.446149
-0.360895
-0.265768
-0.16434
-0.057638
0.0535668
0.168307
0.285156
0.386632
0.457054
0.468277
0.359557
0.169837
-0.0390345
-0.242916
-0.415136
-0.483608
-0.56438
-0.570926
-0.536419
-0.470372
-0.384855
-0.289628
-0.188412
-0.0823419
0.0276134
0.140128
0.253116
0.348723
0.408537
0.395387
0.253043
0.0704991
-0.119417
-0.281515
-0.373931
-0.397898
-0.413966
-0.596997
-0.562409
-0.496173
-0.410568
-0.315425
-0.214588
-0.109385
-0.000977736
0.1089
0.217399
0.30663
0.352987
0.322348
0.154257
-0.0194513
-0.184216
-0.310094
-0.348982
-0.362105
-0.363377
-0.624784
-0.590027
-0.523604
-0.438009
-0.343094
-0.242861
-0.138778
-0.0322507
0.0745556
0.177999
0.25999
0.292241
0.243461
0.0628266
-0.101897
-0.249318
-0.325343
-0.342402
-0.343837
-0.34365
-0.654329
-0.61929
-0.552673
-0.46716
-0.372636
-0.273208
-0.170513
-0.0662142
0.0371005
0.134971
0.208877
0.230268
0.145611
-0.020909
-0.177747
-0.299175
-0.335349
-0.334105
-0.333284
-0.332725
-0.68533
-0.650074
-0.583257
-0.497917
-0.403945
-0.305556
-0.204542
-0.102833
-0.00343799
0.0883969
0.153968
0.15888
0.0557264
-0.099218
-0.237925
-0.31361
-0.323799
-0.326176
-0.326796
-0.326438
-0.7172
-0.681815
-0.615086
-0.530036
-0.436812
-0.339724
-0.240694
-0.141962
-0.0468927
0.0386105
0.0957011
0.0859938
-0.0249497
-0.165908
-0.282347
-0.313388
-0.322139
-0.323729
-0.323374
-0.322896
-0.749473
-0.713978
-0.647659
-0.563095
-0.47086
-0.375361
-0.278662
-0.183299
-0.0929922
-0.0138044
0.0329206
0.016146
-0.0985824
-0.220592
-0.314131
-0.330412
-0.322651
-0.321659
-0.321596
-0.321251
-0.781253
-0.7459
-0.680103
-0.596431
-0.505513
-0.411951
-0.317951
-0.226342
-0.141245
-0.0683807
-0.0313279
-0.0499865
-0.162403
-0.261866
-0.322193
-0.329783
-0.325009
-0.321063
-0.31981
-0.319504
-0.810917
-0.776331
-0.711435
-0.629098
-0.53995
-0.448737
-0.357844
-0.270355
-0.190818
-0.124713
-0.0909032
-0.127458
-0.215143
-0.290363
-0.316753
-0.330927
-0.327924
-0.32185
-0.320085
-0.319371
-0.83691
-0.803337
-0.740499
-0.659912
-0.573081
-0.484689
-0.397381
-0.314366
-0.240561
-0.181915
-0.149082
-0.209716
-0.273692
-0.268252
-0.315586
-0.326808
-0.341929
-0.349502
-0.350954
-0.35015
-0.857106
-0.825256
-0.765085
-0.687408
-0.603516
-0.518573
-0.435321
-0.357139
-0.289211
-0.238625
-0.210567
-0.296778
-0.361232
-0.289401
-0.275313
-0.371624
-0.426307
-0.44975
-0.4501
-0.446958
-0.869245
-0.84005
-0.783491
-0.709575
-0.629673
-0.548895
-0.470208
-0.397164
-0.335236
-0.292854
-0.272488
-0.395039
-0.571134
-0.641492
-0.596707
-0.581781
-0.5847
-0.579663
-0.568053
-0.564926
-0.87068
-0.845471
-0.793632
-0.724616
-0.649727
-0.573999
-0.500386
-0.432591
-0.376616
-0.341931
-0.32862
-0.489268
-0.78955
-1.16896
-1.0864
-0.810324
-0.653194
-0.594549
-0.577691
-0.573583
-0.859592
-0.839098
-0.793404
-0.730887
-0.662112
-0.592231
-0.524071
-0.461387
-0.410646
-0.380848
-0.369585
-0.489513
-0.703284
-1.10146
-1.08719
-0.714202
-0.51343
-0.453829
-0.441271
-0.436062
-0.833614
-0.817868
-0.781019
-0.7271
-0.665723
-0.602389
-0.539754
-0.481603
-0.433591
-0.405031
-0.388293
-0.304226
-0.106992
-0.0185046
-0.134594
-0.182873
-0.231852
-0.243924
-0.246276
-0.245529
-0.794855
-0.784463
-0.756962
-0.713389
-0.660525
-0.604129
-0.546767
-0.491682
-0.444264
-0.412706
-0.38125
-0.157433
0.27557
0.953751
0.884687
0.396903
0.028245
-0.102229
-0.146116
-0.146599
-0.749418
-0.74345
-0.725848
-0.692404
-0.648452
-0.598436
-0.545493
-0.492058
-0.442834
-0.405061
-0.37695
-0.303999
-0.290202
-0.427974
-0.851684
-1.21019
-1.1694
-0.886014
-0.673116
-0.648917
-0.706496
-0.702948
-0.693721
-0.669545
-0.632725
-0.58774
-0.537701
-0.484088
-0.42994
-0.385582
-0.36136
-0.53251
-1.17574
-2.17653
-2.88084
-3.11881
-2.93641
-2.55731
-2.22036
-1.99369
-0.673541
-0.671286
-0.666522
-0.649952
-0.618337
-0.575804
-0.525833
-0.469241
-0.407722
-0.34165
-0.297947
-0.381023
-0.753799
-1.06972
-1.10459
-0.896159
-0.556456
-0.260786
-0.05357
0.0448774
-0.647328
-0.64641
-0.644899
-0.635681
-0.608686
-0.566547
-0.513743
-0.451278
-0.378537
-0.291182
-0.194179
-0.0815731
0.0476967
0.319244
0.673361
1.09284
1.4683
1.72156
1.84888
1.88926
-0.631366
-0.630804
-0.630223
-0.625958
-0.604074
-0.560989
-0.503369
-0.43347
-0.350088
-0.246206
-0.115929
0.0294385
0.284947
0.728834
1.30237
1.82792
2.22236
2.45009
2.54944
2.57521
-0.621718
-0.621326
-0.620691
-0.619386
-0.60283
-0.559563
-0.496747
-0.419887
-0.326152
-0.214755
-0.0864492
0.0458036
0.264214
0.734377
1.27504
1.76615
2.1095
2.29655
2.37413
2.39276
-0.616869
-0.615876
-0.613795
-0.613225
-0.604236
-0.563806
-0.496
-0.411817
-0.313651
-0.201765
-0.0833736
0.0392827
0.191388
0.5774
1.01112
1.3785
1.64135
1.78448
1.84324
1.85754
-0.625949
-0.623027
-0.618243
-0.618074
-0.616154
-0.576806
-0.500056
-0.407051
-0.306258
-0.19663
-0.09111
0.0137921
0.121582
0.390516
0.707854
0.965605
1.15018
1.25012
1.29172
1.30173
-0.65993
-0.658143
-0.660228
-0.664898
-0.66024
-0.600679
-0.504183
-0.399768
-0.296861
-0.192802
-0.102604
-0.0213847
0.0586436
0.246291
0.459565
0.630833
0.75332
0.819827
0.847877
0.853977
-0.700301
-0.708064
-0.72399
-0.730271
-0.704265
-0.612742
-0.494851
-0.382653
-0.282201
-0.189062
-0.116213
-0.0587795
-0.00863456
0.124041
0.272824
0.388125
0.467047
0.508534
0.525503
0.529207
-0.663112
-0.67419
-0.692555
-0.696117
-0.660303
-0.56371
-0.450456
-0.347194
-0.258603
-0.181162
-0.124667
-0.0882318
-0.0581826
0.0375129
0.139224
0.216713
0.269851
0.297806
0.309292
0.310974
-0.491339
-0.501554
-0.514954
-0.518024
-0.491678
-0.429731
-0.358261
-0.287269
-0.22194
-0.162888
-0.120927
-0.0995583
-0.081343
-0.00684229
0.0661856
0.116815
0.147464
0.16294
0.168828
0.169406
-0.262604
-0.267529
-0.276002
-0.284307
-0.28252
-0.268001
-0.243415
-0.211343
-0.174888
-0.136218
-0.107082
-0.0915664
-0.0758453
-0.0259942
0.021559
0.0550489
0.0745693
0.0849573
0.0891618
0.089293
-0.0795346
-0.0820597
-0.0893018
-0.103009
-0.121386
-0.136575
-0.143288
-0.140029
-0.127114
-0.106008
-0.0840617
-0.0675743
-0.0515757
-0.017461
0.0122263
0.0316977
0.0430927
0.0488981
0.051102
0.0508732
0.0231149
0.0215737
0.0150596
-0.000615365
-0.0252928
-0.0515698
-0.0725279
-0.08449
-0.085561
-0.0754295
-0.057344
-0.0366108
-0.015551
0.0086898
0.0224444
0.0311259
0.0368336
0.0400459
0.0414761
0.0408161
0.0628372
0.0616666
0.0562821
0.0426326
0.0202562
-0.00544424
-0.0288773
-0.0460428
-0.0540458
-0.0503835
-0.0344641
-0.0101807
0.0148279
0.027675
0.0310261
0.0339341
0.0379279
0.0415997
0.0425955
0.0414317
0.0683145
0.0674587
0.0635077
0.0533178
0.0361526
0.0152901
-0.00547753
-0.0226863
-0.0331781
-0.0334213
-0.0201958
0.0032756
0.0271675
0.0315906
0.0301841
0.0328599
0.0368321
0.0398392
0.0402205
0.0387512
0.0589948
0.0584245
0.055732
0.0486601
0.0364009
0.0207207
0.00398613
-0.011067
-0.0217896
-0.0248972
-0.0162756
0.00149707
0.0182251
0.0166421
0.0133646
0.0166279
0.0224859
0.0266729
0.0273424
0.0257231
0.0446383
0.0442805
0.042518
0.0377837
0.0293083
0.0179498
0.00503066
-0.00769554
-0.0183239
-0.0243748
-0.0223227
-0.0141129
-0.00760634
-0.0125721
-0.0140951
-0.00918382
-0.00323952
0.000256817
0.000537979
-0.000887054
0.0296018
0.0293699
0.028231
0.0251246
0.019366
0.0112285
0.00135959
-0.00933279
-0.0199691
-0.0293866
-0.0354872
-0.0393371
-0.0447352
-0.0528066
-0.0518032
-0.0445898
-0.03849
-0.0362283
-0.0361405
-0.0371649
0.0159535
0.0157608
0.0150081
0.0130222
0.00918279
0.00339509
-0.004224
-0.0134307
-0.0241816
-0.0369285
-0.0512573
-0.0672528
-0.0848948
-0.0935915
-0.0878267
-0.079483
-0.074308
-0.0730892
-0.0732241
-0.0737761
0.00478993
0.00461856
0.00408175
0.00281772
0.000287712
-0.00383913
-0.00978357
-0.0178106
-0.0286311
-0.0439629
-0.0652141
-0.0923797
-0.115814
-0.121213
-0.112966
-0.10483
-0.10137
-0.100884
-0.10106
-0.101356
-0.00333304
-0.00350064
-0.00391481
-0.00473745
-0.00640002
-0.00934478
-0.0140131
-0.0209623
-0.0314364
-0.0478285
-0.0727914
-0.104746
-0.132407
-0.132919
-0.123075
-0.116221
-0.114451
-0.115013
-0.115151
-0.115277
-0.00823973
-0.00841602
-0.00874696
-0.00930595
-0.0104273
-0.0125585
-0.0162437
-0.0222034
-0.0316023
-0.0471862
-0.0718331
-0.1032
-0.126043
-0.122614
-0.114811
-0.111549
-0.11225
-0.113552
-0.113673
-0.113712
-0.0102348
-0.0103878
-0.0106612
-0.0110813
-0.0118529
-0.0134024
-0.0162424
-0.021014
-0.0288143
-0.0418795
-0.0618322
-0.0862722
-0.100726
-0.0964282
-0.0919132
-0.0932974
-0.0958767
-0.0974848
-0.097703
-0.0978023
-0.00982234
-0.0099509
-0.0101805
-0.0105004
-0.0110476
-0.0121661
-0.0142605
-0.0177993
-0.0235658
-0.0328517
-0.0456913
-0.059549
-0.0650834
-0.061783
-0.0630128
-0.0673167
-0.0705845
-0.0719224
-0.0722336
-0.0724778
-0.00771206
-0.00781867
-0.00799318
-0.00822946
-0.00861064
-0.00938349
-0.0107557
-0.0130763
-0.0167247
-0.0220857
-0.0275567
-0.030383
-0.0293837
-0.0276143
-0.0329193
-0.0391562
-0.0422652
-0.0430512
-0.0434942
-0.0438711
-0.00455349
-0.0046291
-0.00473722
-0.00487249
-0.0050996
-0.00553376
-0.00629487
-0.00752234
-0.00933698
-0.0115398
-0.0120318
-0.00646213
0.00329719
4.74712e-05
-0.00833764
-0.0150366
-0.0168487
-0.0164933
-0.0170967
-0.0177756
-0.000787085
-0.000814117
-0.000820651
-0.000878525
-0.00100404
-0.00102085
-0.00107157
-0.0012627
-0.00146918
-0.00176387
-0.00185076
0.000350035
0.00608664
0.00618999
0.00121262
-0.00187328
-0.00260509
-0.00287241
-0.00350804
-0.00337823
-0.0979354
0.0704389
0.267344
0.439084
0.576733
0.685658
0.775993
0.852714
0.887416
0.864108
0.208576
0.330421
0.461554
0.575068
0.670943
0.750444
0.81481
0.860445
0.883296
0.895316
0.429889
0.513525
0.60315
0.682456
0.750719
0.807847
0.853258
0.886411
0.910331
0.928269
0.592224
0.65194
0.714432
0.772044
0.822213
0.864809
0.899777
0.927651
0.950561
0.968836
0.718737
0.76227
0.808609
0.852775
0.891794
0.92586
0.955003
0.979242
0.999703
1.01753
0.823709
0.856833
0.895193
0.930973
0.963802
0.993216
1.01891
1.0405
1.0584
1.07574
0.916665
0.945499
0.979637
1.01192
1.04199
1.06927
1.0931
1.11288
1.12842
1.1455
1.0055
1.03479
1.0689
1.10103
1.13072
1.15737
1.18029
1.19882
1.21221
1.22925
1.10096
1.13423
1.17093
1.20457
1.23466
1.26089
1.28287
1.30018
1.31207
1.32947
1.21605
1.25392
1.29259
1.32687
1.35625
1.38102
1.40141
1.41732
1.4288
1.44687
1.36104
1.39961
1.43578
1.46648
1.49218
1.51429
1.53336
1.5489
1.56134
1.57933
1.53616
1.56779
1.59399
1.61645
1.63643
1.65517
1.67289
1.68938
1.70473
1.7228
1.7248
1.742
1.75705
1.77328
1.7892
1.80374
1.81695
1.83088
1.84842
1.86858
1.90652
1.91607
1.92761
1.93843
1.94771
1.9573
1.96809
1.97946
1.99082
2.00618
2.11378
2.11744
2.10249
2.08768
2.08141
2.08709
2.10557
2.13588
2.16806
2.19471
2.42009
2.28523
2.20859
2.16622
2.1488
2.15276
2.18016
2.23657
2.33919
2.56356
0.718446
0.716316
0.711831
0.703203
0.690974
0.678839
0.6686
0.66069
0.655053
0.651773
0.651384
0.65409
0.659167
0.666368
0.67574
0.687269
0.699913
0.710942
0.717052
0.720103
0.642907
0.648753
0.655086
0.659574
0.662038
0.661706
0.658958
0.655133
0.651602
0.649314
0.649131
0.651293
0.654926
0.659192
0.662982
0.664853
0.663908
0.660419
0.655252
0.648631
0.634497
0.636793
0.640194
0.643185
0.645254
0.64674
0.647482
0.647149
0.646101
0.645187
0.645322
0.646709
0.648491
0.64977
0.64993
0.649024
0.647464
0.645119
0.64185
0.638926
0.629007
0.630094
0.631923
0.634295
0.63631
0.637727
0.638733
0.639465
0.63984
0.640026
0.640471
0.641232
0.641791
0.641825
0.641387
0.640519
0.639035
0.63694
0.634846
0.63346
0.623832
0.624495
0.6256
0.627297
0.629069
0.630687
0.631965
0.632957
0.633808
0.634556
0.635231
0.635727
0.635873
0.635667
0.635069
0.63399
0.632542
0.630984
0.629656
0.628874
0.618891
0.619352
0.620134
0.621424
0.6229
0.624401
0.625845
0.627116
0.628214
0.629219
0.630069
0.630569
0.630655
0.630332
0.629595
0.628573
0.627422
0.626271
0.625343
0.624824
0.614106
0.614451
0.615058
0.616118
0.617398
0.618754
0.620169
0.621583
0.622911
0.624131
0.625162
0.625769
0.625872
0.625534
0.624884
0.624065
0.623181
0.62229
0.621603
0.621222
0.609425
0.609694
0.610183
0.611082
0.612237
0.613512
0.614879
0.616329
0.617818
0.619265
0.620517
0.621281
0.621488
0.621288
0.62083
0.620217
0.619525
0.618854
0.618345
0.618054
0.60477
0.604983
0.60539
0.606178
0.607251
0.608475
0.609827
0.611317
0.612925
0.614594
0.616109
0.617107
0.617527
0.617545
0.617298
0.616888
0.616388
0.615899
0.615527
0.615298
0.600056
0.600228
0.600575
0.60129
0.602314
0.603513
0.604887
0.60645
0.608201
0.610101
0.611929
0.613251
0.613964
0.614242
0.614223
0.614022
0.613716
0.613389
0.613128
0.612946
0.595199
0.595337
0.595643
0.596313
0.597319
0.598539
0.599973
0.601651
0.603593
0.605778
0.60799
0.609716
0.610781
0.611358
0.611596
0.611612
0.611494
0.611318
0.611151
0.611005
0.590117
0.590229
0.590507
0.591157
0.592179
0.593464
0.595002
0.596849
0.599049
0.601598
0.604285
0.606499
0.607975
0.608895
0.609418
0.609666
0.609739
0.609712
0.609626
0.609508
0.584722
0.584811
0.585072
0.585726
0.586801
0.588193
0.589889
0.591972
0.594513
0.597533
0.600808
0.603603
0.605561
0.606872
0.607712
0.608228
0.608506
0.608618
0.608602
0.608506
0.578914
0.578981
0.579234
0.579915
0.581081
0.582628
0.584544
0.58694
0.589909
0.593513
0.597509
0.60101
0.603547
0.605322
0.606527
0.607336
0.607839
0.608098
0.608149
0.608072
0.572575
0.572622
0.572875
0.573606
0.574902
0.576659
0.578867
0.581663
0.585176
0.589505
0.594384
0.59874
0.60197
0.604295
0.605923
0.607062
0.607824
0.60824
0.608356
0.608295
0.565568
0.565596
0.565853
0.566655
0.568124
0.57015
0.572733
0.576041
0.580243
0.58547
0.591428
0.596819
0.600875
0.603847
0.60598
0.607502
0.608558
0.609145
0.609328
0.609281
0.557704
0.557718
0.557977
0.558875
0.560572
0.562939
0.566007
0.569972
0.575044
0.581395
0.588673
0.5953
0.600334
0.604065
0.606788
0.608779
0.610167
0.610939
0.611191
0.611156
0.548705
0.548688
0.549005
0.550037
0.552011
0.554818
0.558503
0.56329
0.569444
0.577182
0.586069
0.594186
0.60039
0.605031
0.60846
0.611004
0.612778
0.61376
0.614085
0.614059
0.538286
0.538242
0.538602
0.539821
0.542154
0.545529
0.550001
0.555837
0.563355
0.5728
0.583642
0.59355
0.601141
0.606856
0.611119
0.614306
0.616535
0.617753
0.618156
0.618138
0.525982
0.525911
0.526347
0.527805
0.530609
0.534731
0.540225
0.547413
0.556673
0.568261
0.581475
0.593495
0.602696
0.609661
0.614915
0.618851
0.621601
0.623079
0.623559
0.623545
0.511162
0.511061
0.511616
0.513419
0.516856
0.521977
0.528828
0.537788
0.549268
0.563502
0.579564
0.59407
0.60516
0.613571
0.619972
0.62478
0.62812
0.629878
0.630434
0.630418
0.492918
0.492788
0.493536
0.495833
0.500154
0.506654
0.515355
0.526677
0.541023
0.558538
0.577999
0.59538
0.608619
0.618686
0.626394
0.632204
0.636212
0.638266
0.638887
0.638862
0.469828
0.469682
0.470757
0.473832
0.479493
0.488031
0.49938
0.513943
0.53202
0.553583
0.577018
0.597631
0.613239
0.625145
0.634288
0.641221
0.64594
0.648281
0.648944
0.648897
0.43956
0.439434
0.441115
0.445546
0.453468
0.465187
0.480421
0.49942
0.522255
0.548676
0.576668
0.600884
0.619075
0.632948
0.643668
0.651819
0.65724
0.659815
0.660479
0.660397
0.397985
0.398023
0.401053
0.408342
0.420452
0.437388
0.458393
0.483399
0.5122
0.544326
0.57737
0.605389
0.626255
0.642159
0.654497
0.663884
0.669892
0.672575
0.673184
0.673057
0.337394
0.338579
0.346036
0.359688
0.379492
0.404733
0.433866
0.466517
0.502368
0.540862
0.579278
0.611213
0.63477
0.652673
0.666596
0.677049
0.683484
0.686068
0.686508
0.686341
0.265098
0.26686
0.281164
0.304729
0.33535
0.37042
0.408461
0.44932
0.492805
0.538405
0.583154
0.620042
0.647228
0.667883
0.683826
0.695611
0.702503
0.7051
0.705572
0.705515
0.190363
0.196528
0.217676
0.251391
0.292321
0.336959
0.383892
0.433023
0.484235
0.537078
0.588379
0.630438
0.66138
0.684984
0.703255
0.716375
0.723511
0.725806
0.726095
0.726119
0.129308
0.137747
0.163511
0.204233
0.253151
0.305929
0.360873
0.417736
0.47632
0.536135
0.593702
0.640634
0.675059
0.701259
0.721381
0.735588
0.74284
0.745225
0.745882
0.745987
0.0796093
0.0886391
0.11795
0.16389
0.218897
0.278231
0.339933
0.403617
0.46892
0.535237
0.598699
0.650182
0.68782
0.716382
0.738251
0.753574
0.761583
0.764554
0.765344
0.765475
0.0378695
0.0471858
0.0789542
0.128885
0.188872
0.253646
0.321067
0.390702
0.462028
0.534308
0.603248
0.658962
0.69954
0.730258
0.753788
0.77021
0.779085
0.782465
0.783385
0.783506
0.00173078
0.0111728
0.0447998
0.0979282
0.162026
0.231431
0.303836
0.378734
0.455499
0.533257
0.607294
0.666922
0.710196
0.742848
0.767765
0.785105
0.794627
0.798372
0.799415
0.79955
-0.0304422
-0.0209456
0.0141131
0.0699527
0.137499
0.210886
0.287693
0.367318
0.449052
0.531885
0.610685
0.673965
0.719696
0.754059
0.780082
0.798125
0.808198
0.81227
0.813333
0.813465
-0.0598804
-0.0503249
-0.0140973
0.0440788
0.114603
0.191474
0.272183
0.356085
0.44239
0.529972
0.613284
0.680028
0.728051
0.763911
0.790793
0.809267
0.819683
0.823989
0.825128
0.825251
-0.0874045
-0.0777901
-0.0405004
0.0196559
0.0928327
0.172784
0.256979
0.344763
0.435294
0.527351
0.614998
0.685119
0.735367
0.772594
0.800156
0.818889
0.829468
0.833951
0.835163
0.835275
-0.113559
-0.103851
-0.0655758
-0.0037343
0.0718269
0.154513
0.241845
0.333164
0.427609
0.523904
0.615783
0.689289
0.741768
0.780299
0.808455
0.827445
0.838122
0.842675
0.843873
0.843955
-0.138799
-0.128898
-0.0897808
-0.026322
0.0513328
0.136463
0.226625
0.321168
0.419243
0.519567
0.615619
0.692587
0.747358
0.787199
0.815936
0.835149
0.845918
0.85045
0.85161
0.851637
-0.163347
-0.15321
-0.113316
-0.0482966
0.0312011
0.118514
0.211228
0.30871
0.410141
0.514302
0.614497
0.69504
0.752232
0.793455
0.822817
0.842248
0.853052
0.857529
0.858626
0.858648
-0.187293
-0.176928
-0.136185
-0.0698105
0.0113497
0.100623
0.19562
0.295764
0.400288
0.508083
0.612389
0.696655
0.756452
0.799207
0.829285
0.848946
0.859727
0.864066
0.865056
0.865032
-0.210763
-0.200079
-0.158581
-0.0909196
-0.00825312
0.0827678
0.179807
0.282347
0.389701
0.500914
0.609256
0.697394
0.760051
0.804568
0.835475
0.855325
0.865967
0.870085
0.870913
0.870831
-0.233723
-0.222744
-0.180483
-0.111635
-0.0276022
0.0649744
0.163833
0.268508
0.378418
0.492803
0.605062
0.697188
0.763017
0.809624
0.84153
0.861503
0.871813
0.875561
0.876205
0.876077
-0.256208
-0.244908
-0.201838
-0.131921
-0.046661
0.0472879
0.147751
0.254316
0.366503
0.48378
0.599769
0.695955
0.765278
0.814422
0.847636
0.867686
0.877393
0.880553
0.880962
0.880795
-0.278032
-0.266486
-0.222637
-0.151733
-0.0653739
0.029789
0.131633
0.239849
0.354038
0.473908
0.59336
0.6936
0.766721
0.818937
0.853991
0.874243
0.882983
0.88515
0.885195
0.884997
-0.29933
-0.287431
-0.24285
-0.171044
-0.0837049
0.0125207
0.115577
0.225194
0.341115
0.463271
0.585844
0.690017
0.767178
0.823026
0.860698
0.881711
0.889256
0.889719
0.88896
0.888706
-0.319931
-0.307711
-0.262439
-0.189797
-0.101569
-0.00442958
0.0996643
0.210473
0.327845
0.451935
0.577265
0.685115
0.766444
0.8264
0.867589
0.89059
0.897545
0.89563
0.892845
0.891704
-0.33989
-0.327366
-0.281349
-0.207938
-0.118927
-0.0209904
0.0839812
0.195766
0.314341
0.440037
0.567697
0.67881
0.764301
0.828633
0.874033
0.900698
0.909289
0.90626
0.899465
0.890498
-0.359122
-0.346351
-0.299674
-0.225622
-0.135987
-0.0374445
0.0681866
0.180667
0.300142
0.427059
0.556588
0.670506
0.760192
0.829224
0.879117
0.910933
0.924499
0.922892
0.912763
0.906163
-0.377572
-0.364582
-0.317407
-0.242808
-0.152744
-0.0537933
0.0522984
0.165156
0.285207
0.412889
0.543755
0.659846