/*--------------------------------*- C++ -*----------------------------------*\
  =========                 |
  \\      /  F ield         | OpenFOAM: The Open Source CFD Toolbox
   \\    /   O peration     | Website:  https://openfoam.org
    \\  /    A nd           | Version:  9
     \\/     M anipulation  |
\*---------------------------------------------------------------------------*/
FoamFile
{
    format      ascii;
    class       surfaceScalarField;
    location    "46";
    object      phi;
}
// * * * * * * * * * * * * * * * * * * * * * * * * * * * * * * * * * * * * * //

dimensions      [0 3 -1 0 0 0 0];

internalField   nonuniform List<scalar> 
17370
(
-0.091607
0.0960083
0.28461
-0.077593
0.0594177
0.364951
-0.0430401
0.0316209
0.427587
-0.0223168
0.0162637
0.505305
-0.0116694
0.00879432
0.602277
-0.00658224
0.00509811
0.720542
-0.00386424
0.00298756
0.863783
-0.00221812
0.00164231
1.03603
-0.00111302
0.000693979
1.24292
-0.000284614
-0.000107198
1.49158
0.000494004
-0.000904031
1.4916
0.001306
-0.00180915
1.24319
0.00235972
-0.00310499
1.03638
0.00396646
-0.00519103
0.864131
0.00666976
-0.00887448
0.721262
0.0117389
-0.0163174
0.603793
0.0223548
-0.0316424
0.508727
0.043045
-0.0594122
0.432535
0.0775901
-0.0960045
0.36519
0.0916203
0.197391
-0.127089
0.0880188
0.0390698
-0.364353
0.354026
-0.071479
0.0818056
-0.446655
0.45425
-0.0791727
0.0715782
-0.52101
0.529106
-0.0637288
0.0556329
-0.612989
0.620758
-0.0482468
0.0404774
-0.727161
0.733681
-0.0338653
0.0273454
-0.86758
0.872426
-0.0221448
0.0172988
-1.03856
1.0419
-0.0136058
0.0102698
-1.24472
1.24712
-0.00772035
0.00531569
-1.49284
1.49485
-0.00335283
0.00134049
-1.49269
1.49451
0.000478419
-0.00229617
-1.24411
1.24602
0.00426849
-0.00617942
-1.03761
1.04009
0.00851574
-0.0109971
-0.866188
0.869822
0.0142598
-0.0178939
-0.724595
0.729755
0.0226874
-0.0278477
-0.609066
0.615638
0.0343256
-0.040897
-0.515125
0.522462
0.0486182
-0.0559553
-0.43988
0.447661
0.0639802
-0.0717616
-0.37471
0.377356
0.0792627
-0.0819083
-0.256901
0.224441
0.071559
-0.0390996
-0.0688045
0.0591901
0.00961442
-0.0521216
0.0589539
-0.374834
0.368001
-0.0581098
0.0542706
-0.453943
0.457782
-0.0487858
0.0442283
-0.527612
0.532169
-0.0396799
0.0357857
-0.620795
0.624689
-0.0315759
0.027586
-0.734654
0.738644
-0.0232363
0.0193548
-0.873949
0.877831
-0.0153143
0.01186
-1.04335
1.04681
-0.00834324
0.00531281
-1.24864
1.25168
-0.00210659
-0.000872894
-1.49694
1.49992
0.00383117
-0.00697736
-1.49742
1.50057
0.00992176
-0.0133241
-1.25007
1.25347
0.0166653
-0.0205814
-1.04565
1.04957
0.0243569
-0.0286031
-0.877141
0.881387
0.032509
-0.0366334
-0.738987
0.743111
0.0404539
-0.0449279
-0.625976
0.63045
0.0494236
-0.0548482
-0.535021
0.540445
0.0586192
-0.0593825
-0.458081
0.458844
0.0524413
-0.0320583
-0.336772
0.316389
0.00967138
-0.0686686
0.0589972
-0.0533994
0.0492855
0.00411391
-0.0332594
0.0436902
-0.35855
0.348119
-0.047372
0.0467896
-0.459571
0.460153
-0.0438655
0.0406567
-0.536123
0.539332
-0.0369839
0.0336332
-0.628384
0.631735
-0.030005
0.0267704
-0.742022
0.745256
-0.0233257
0.0201342
-0.881322
0.884513
-0.0165461
0.0131983
-1.05023
1.05358
-0.00950387
0.00610328
-1.25493
1.25833
-0.0023165
-0.00129644
-1.50327
1.50689
0.00487895
-0.00857756
-1.50407
1.50777
0.0118594
-0.0153949
-1.25704
1.26057
0.0185831
-0.0219911
-1.05328
1.05668
0.0250267
-0.0283185
-0.884993
0.888285
0.0314291
-0.034934
-0.746795
0.7503
0.0381779
-0.0417382
-0.634574
0.638135
0.0448494
-0.0476646
-0.544592
0.547408
0.0481352
-0.0442983
-0.456965
0.453129
0.0336779
-0.0163718
-0.297079
0.279773
0.00417639
-0.0531495
0.0489731
-0.0461141
0.0435556
0.00255851
-0.0230666
0.0334259
-0.33752
0.32716
-0.0391691
0.0401248
-0.459899
0.458943
-0.0388806
0.0365583
-0.541984
0.544307
-0.0339224
0.0313818
-0.634697
0.637238
-0.0284117
0.0255711
-0.748338
0.751178
-0.0223417
0.0193349
-0.887564
0.89057
-0.0159909
0.0128633
-1.05675
1.05987
-0.00931426
0.0059213
-1.26172
1.26511
-0.00201787
-0.00177482
-1.51061
1.51441
0.00552945
-0.00931655
-1.51155
1.51534
0.0125524
-0.0158911
-1.26404
1.26737
0.0188071
-0.0219132
-1.05989
1.063
0.0247113
-0.0277317
-0.89148
0.8945
0.0304015
-0.033202
-0.753479
0.75628
0.035598
-0.0380856
-0.641092
0.64358
0.0402815
-0.0413586
-0.549248
0.550325
0.0402307
-0.0342368
-0.448012
0.442018
0.0236024
-0.010365
-0.264595
0.251358
0.00263576
-0.0457322
0.0430965
-0.0414354
0.0396317
0.00180371
-0.0169671
0.0262647
-0.317283
0.307985
-0.0328739
0.0350043
-0.457378
0.455247
-0.0345786
0.0328862
-0.546333
0.548025
-0.0306645
0.0285419
-0.639543
0.641666
-0.0261113
0.0237407
-0.753771
0.756142
-0.0209352
0.0181963
-0.893417
0.896156
-0.0150202
0.0119938
-1.06291
1.06593
-0.0085386
0.0052332
-1.26843
1.27173
-0.00140508
-0.00233243
-1.51817
1.5219
0.00602093
-0.00970311
-1.51908
1.52277
0.0128114
-0.016004
-1.27066
1.27385
0.0187654
-0.0216383
-1.06603
1.0689
0.0241041
-0.0266309
-0.897284
0.899811
0.0287747
-0.0309856
-0.758723
0.760934
0.0329253
-0.0349585
-0.645812
0.647846
0.0364682
-0.0366677
-0.550915
0.551114
0.0342737
-0.0272991
-0.43544
0.428466
0.0176343
-0.00746176
-0.239796
0.229624
0.00189815
-0.0408911
0.038993
-0.0380797
0.0367246
0.00135514
-0.0129704
0.0209835
-0.299335
0.291322
-0.0277675
0.0307034
-0.452686
0.44975
-0.0309233
0.0298094
-0.549458
0.550572
-0.0278193
0.0259007
-0.643715
0.645634
-0.0236973
0.0215638
-0.758374
0.760508
-0.0190651
0.0166059
-0.898692
0.901152
-0.0136982
0.0108564
-1.06882
1.07166
-0.00754308
0.0043413
-1.27495
1.27815
-0.00062257
-0.00299839
-1.52556
1.52918
0.00655827
-0.0100958
-1.52638
1.52991
0.0130534
-0.0160398
-1.27697
1.27996
0.0185504
-0.0210775
-1.07162
1.07415
0.0231931
-0.0253382
-0.90213
0.904275
0.0271808
-0.0291012
-0.762979
0.764899
0.030787
-0.0325518
-0.649718
0.651483
0.0334013
-0.0328666
-0.550953
0.550418
0.0295556
-0.0222732
-0.421282
0.413999
0.0137905
-0.0057549
-0.220623
0.212587
0.00147018
-0.0373372
0.0358671
-0.035541
0.0344961
0.00104495
-0.0101477
0.0169377
-0.283947
0.277157
-0.0234759
0.0268787
-0.446566
0.443163
-0.02768
0.0269998
-0.551464
0.552144
-0.0252447
0.0234702
-0.647517
0.649292
-0.0214189
0.0194251
-0.762568
0.764561
-0.0170805
0.0147799
-0.903462
0.905763
-0.0120741
0.00942056
-1.07434
1.07699
-0.00629667
0.00324447
-1.28124
1.28429
0.000324804
-0.00379752
-1.53271
1.53618
0.00719587
-0.0105403
-1.53336
1.5367
0.0132905
-0.0160107
-1.28283
1.28555
0.0182576
-0.0204971
-1.07654
1.07878
0.0223751
-0.024281
-0.906307
0.908213
0.0259112
-0.027608
-0.766697
0.768393
0.0290935
-0.0305367
-0.653103
0.654546
0.0308813
-0.0296414
-0.549542
0.548302
0.0257215
-0.0185292
-0.406739
0.399547
0.0111513
-0.00462027
-0.205376
0.198845
0.00118505
-0.0345576
0.0333725
-0.0335779
0.0327621
0.000815738
-0.00805678
0.0137752
-0.270934
0.265215
-0.0198416
0.0234561
-0.439648
0.436034
-0.0247493
0.0243262
-0.552731
0.553154
-0.0228542
0.0211991
-0.651054
0.65271
-0.0192538
0.0173568
-0.766499
0.768396
-0.0151196
0.0129196
-0.907945
0.910145
-0.0103289
0.00779642
-1.07951
1.08204
-0.00482859
0.00192896
-1.28722
1.29012
0.0014641
-0.004765
-1.53954
1.54284
0.00797553
-0.0110959
-1.53993
1.54305
0.0136274
-0.0161054
-1.28817
1.29065
0.0181429
-0.0201637
-1.08093
1.08295
0.021843
-0.0235359
-0.910027
0.91172
0.0249798
-0.0264833
-0.769991
0.771494
0.0277773
-0.0288499
-0.655779
0.656852
0.0288329
-0.0269343
-0.54674
0.544842
0.0226338
-0.0157312
-0.392496
0.385593
0.00928381
-0.00383024
-0.192905
0.187451
0.000986352
-0.0323012
0.0313149
-0.0320444
0.0314054
0.000638998
-0.00644727
0.0112498
-0.259985
0.255182
-0.0167355
0.0203622
-0.432417
0.42879
-0.0219908
0.0218011
-0.553499
0.553688
-0.0205705
0.018982
-0.654375
0.655964
-0.0170992
0.0152591
-0.770255
0.772095
-0.013093
0.0109677
-0.912229
0.914355
-0.00846791
0.00602732
-1.08445
1.08689
-0.00317307
0.000399718
-1.2929
1.29567
0.00282882
-0.00594787
-1.54602
1.54914
0.00895538
-0.0118497
-1.54605
1.54895
0.0141746
-0.0164271
-1.29304
1.29529
0.0182593
-0.0200595
-1.08489
1.08669
0.0215471
-0.0230464
-0.913337
0.914836
0.0243307
-0.0256683
-0.772915
0.774253
0.026823
-0.0275002
-0.657705
0.658382
0.027127
-0.0246947
-0.542694
0.540262
0.0201776
-0.0136407
-0.378885
0.372348
0.00794147
-0.00326982
-0.182429
0.177758
0.00084591
-0.0304114
0.0295655
-0.0308461
0.0303499
0.000496181
-0.00515357
0.00916604
-0.250803
0.246791
-0.0140249
0.0175163
-0.425244
0.421752
-0.0193444
0.0193584
-0.553825
0.553811
-0.0183383
0.0167953
-0.657597
0.65914
-0.014949
0.0131381
-0.773907
0.775718
-0.0110062
0.00891825
-0.916369
0.918457
-0.00646969
0.0040889
-1.08921
1.09159
-0.0013176
-0.00135595
-1.29833
1.301
0.00443985
-0.00738759
-1.55213
1.55508
0.0102006
-0.0128813
-1.55172
1.5544
0.0150135
-0.0170599
-1.29747
1.29951
0.018707
-0.0203088
-1.08842
1.09002
0.0216209
-0.0229375
-0.916267
0.917584
0.0240643
-0.0252326
-0.775524
0.776692
0.0262003
-0.0265135
-0.658851
0.659165
0.0257715
-0.0228958
-0.537624
0.534748
0.0182659
-0.0120952
-0.366015
0.359844
0.00697979
-0.00287554
-0.173405
0.1693
0.000748878
-0.0287803
0.0280314
-0.0299207
0.0295452
0.000375487
-0.00406905
0.00738543
-0.243151
0.239835
-0.0116008
0.0148421
-0.418402
0.415161
-0.0167419
0.0169268
-0.553766
0.553581
-0.0160121
0.0145639
-0.660712
0.66216
-0.0127355
0.010926
-0.77751
0.77932
-0.0087933
0.00671104
-0.92044
0.922523
-0.00428234
0.00193531
-1.09386
1.09621
0.000773449
-0.00337318
-1.30357
1.30617
0.00634419
-0.00915073
-1.55791
1.56071
0.0117933
-0.0142699
-1.55696
1.55944
0.0162048
-0.0180296
-1.30148
1.3033
0.019477
-0.0208695
-1.09156
1.09295
0.0220039
-0.0231476
-0.918844
0.919988
0.0241323
-0.0251369
-0.777804
0.778809
0.025854
-0.0258822
-0.659329
0.659358
0.0247493
-0.0214983
-0.531696
0.528445
0.0168162
-0.0109721
-0.353866
0.348022
0.00630076
-0.00260353
-0.165433
0.161736
0.000683772
-0.0273282
0.0266444
-0.029229
0.0289602
0.000268741
-0.00311999
0.00580764
-0.236853
0.234165
-0.00937972
0.0122887
-0.412107
0.409198
-0.0141455
0.0144246
-0.553415
0.553136
-0.0135632
0.0121688
-0.663671
0.665065
-0.0103265
0.00848834
-0.781122
0.78296
-0.00632764
0.0042297
-0.924495
0.926593
-0.00179762
-0.000534123
-1.09843
1.10076
0.00321751
-0.00576201
-1.30867
1.31121
0.00863451
-0.0113069
-1.5634
1.56608
0.0137802
-0.0160552
-1.5618
1.56407
0.0177991
-0.01941
-1.30505
1.30666
0.0206628
-0.0218439
-1.09429
1.09547
0.0227889
-0.0237418
-0.921076
0.922028
0.024573
-0.0254074
-0.779743
0.780577
0.0258729
-0.0256409
-0.659236
0.659004
0.0241002
-0.0204998
-0.525044
0.521444
0.0157799
-0.0101946
-0.342349
0.336764
0.0058449
-0.00242775
-0.158214
0.154797
0.000644096
-0.0259949
0.0253508
-0.0287481
0.0285806
0.000167528
-0.00224058
0.00433722
-0.23179
0.229694
-0.00726038
0.00976755
-0.406515
0.404007
-0.0114797
0.0117851
-0.552923
0.552618
-0.0109598
0.00959682
-0.666552
0.667915
-0.00772884
0.00584095
-0.784793
0.786681
-0.00361674
0.00146189
-0.928584
0.930739
0.00101993
-0.00338734
-1.10299
1.10536
0.00607368
-0.00859048
-1.31365
1.31617
0.0113878
-0.0139409
-1.56863
1.57118
0.0162528
-0.0183247
-1.56622
1.56829
0.0198692
-0.0212549
-1.30818
1.30957
0.0223052
-0.02327
-1.0966
1.09757
0.0240236
-0.0247769
-0.922939
0.923693
0.0254389
-0.0261082
-0.781339
0.782009
0.0262737
-0.0257176
-0.658554
0.657998
0.0237803
-0.0198585
-0.517729
0.513807
0.0150958
-0.00969593
-0.331322
0.325922
0.00556565
-0.00232837
-0.151507
0.14827
0.000625072
-0.0247324
0.0241073
-0.0284697
0.0284051
6.45203e-05
-0.0013808
0.00289921
-0.227902
0.226383
-0.0051549
0.00718981
-0.401765
0.39973
-0.00864489
0.00888945
-0.552436
0.552191
-0.00805367
0.00669023
-0.669402
0.670765
-0.00476332
0.00279822
-0.788564
0.790529
-0.000478734
-0.00176
-0.932782
0.935021
0.00432099
-0.00673934
-1.10762
1.11003
0.00945622
-0.0119697
-1.31858
1.32109
0.0147173
-0.0171694
-1.57362
1.57608
0.0193271
-0.0211947
-1.57023
1.5721
0.0225331
-0.023679
-1.31087
1.31201
0.0245026
-0.0252146
-1.09849
1.0992
0.0257352
-0.0262561
-0.924401
0.924922
0.0267379
-0.0272206
-0.78254
0.783023
0.0270974
-0.0261657
-0.65717
0.656238
0.0238194
-0.0195706
-0.509793
0.505545
0.0147357
-0.00943872
-0.320641
0.315344
0.00543501
-0.00229234
-0.145124
0.141982
0.000622718
-0.023503
0.0228803
-0.0283971
0.0284424
-4.52774e-05
-0.000494776
0.00142647
-0.225172
0.224241
-0.00298379
0.00448082
-0.397991
0.396494
-0.00557657
0.00567261
-0.552136
0.55204
-0.00476016
0.00333078
-0.672312
0.673741
-0.00130301
-0.000778534
-0.792496
0.794578
0.00322909
-0.0055759
-0.937141
0.939488
0.00824419
-0.0107442
-1.11234
1.11484
0.0135235
-0.0160553
-1.3235
1.32604
0.0187634
-0.0211077
-1.5784
1.58074
0.023096
-0.0247355
-1.57381
1.57545
0.0258424
-0.0267202
-1.31305
1.31393
0.0272964
-0.0277369
-1.09987
1.10031
0.0280123
-0.0282841
-0.925423
0.925695
0.0285741
-0.0287953
-0.78325
0.783471
0.0284244
-0.0270335
-0.655006
0.653615
0.0242511
-0.0196503
-0.501234
0.496634
0.0146922
-0.00940794
-0.310138
0.304854
0.00544252
-0.00231616
-0.138898
0.135772
0.0006368
-0.0222725
0.0216357
-0.0285435
0.0287032
-0.000159758
0.000436294
-0.00012658
-0.223629
0.223319
-0.000680239
0.00156083
-0.395324
0.394444
-0.00219378
0.00206931
-0.552203
0.552327
-0.00104032
-0.000500596
-0.675406
0.676947
0.00265879
-0.00489109
-0.79666
0.798893
0.00752216
-0.0100355
-0.94172
0.944233
0.0128757
-0.0155093
-1.11724
1.11987
0.0183955
-0.0209767
-1.32847
1.33105
0.0236711
-0.025927
-1.58296
1.58521
0.0277483
-0.0291496
-1.57693
1.57833
0.03001
-0.0305945
-1.31468
1.31527
0.030898
-0.031046
-1.10069
1.10084
0.031055
-0.0310502
-0.925932
0.925927
0.0311022
-0.0309891
-0.783342
0.783229
0.0302937
-0.0283734
-0.651951
0.650031
0.0251048
-0.0201029
-0.491985
0.486983
0.0149577
-0.00959207
-0.299629
0.294263
0.00557942
-0.00239563
-0.132675
0.129492
0.000666026
-0.021009
0.020343
-0.0289442
0.0292485
-0.000304309
0.00146127
-0.00180839
-0.223366
0.223713
0.0018598
-0.001713
-0.393894
0.393747
0.00168422
-0.00214135
-0.552823
0.55328
0.00336041
-0.00505543
-0.678775
0.68047
0.00740152
-0.00983677
-0.801124
0.803559
0.0127076
-0.0154341
-0.946634
0.94936
0.018487
-0.0212864
-1.12241
1.1252
0.0243107
-0.0269638
-1.33353
1.33618
0.0296567
-0.0318119
-1.58733
1.58948
0.033441
-0.034554
-1.57953
1.58064
0.0351338
-0.0353732
-1.3157
1.31594
0.0353653
-0.0351836
-1.1009
1.10072
0.0348984
-0.034586
-0.925853
0.925541
0.0343934
-0.0338537
-0.782659
0.78212
0.0327446
-0.0302029
-0.647891
0.64535
0.0264065
-0.0209491
-0.481955
0.476497
0.0155389
-0.00998857
-0.288927
0.283376
0.00584146
-0.00252773
-0.12631
0.122996
0.000709047
-0.0196834
0.0189743
-0.0296244
0.0301057
-0.000481227
0.00275885
-0.00387082
-0.224456
0.225568
0.00480194
-0.00546081
-0.393936
0.394595
0.00615205
-0.00706176
-0.554258
0.555168
0.00857927
-0.0105252
-0.682533
0.684479
0.0131586
-0.015861
-0.805992
0.808695
0.0190184
-0.0219937
-0.951959
0.954935
0.0253018
-0.0283077
-1.1279
1.13091
0.0315101
-0.0342569
-1.33873
1.34148
0.0369484
-0.0389834
-1.59148
1.59351
0.040382
-0.0411719
-1.58153
1.58232
0.0414087
-0.0412664
-1.31599
1.31585
0.0408945
-0.0403256
-1.10037
1.09981
0.0396925
-0.03902
-0.925099
0.924426
0.0385215
-0.0375062
-0.781061
0.780046
0.0359014
-0.0326697
-0.642668
0.639436
0.0282565
-0.022239
-0.471011
0.464993
0.0164599
-0.0106091
-0.277819
0.271968
0.00623486
-0.0027154
-0.119657
0.116137
0.000767053
-0.0182675
0.0175004
-0.0306582
0.0313574
-0.000699215
0.00425689
-0.00626027
-0.227101
0.229105
0.00828437
-0.00984579
-0.395657
0.397219
0.011352
-0.0128165
-0.556759
0.558224
0.0147384
-0.0170039
-0.686868
0.689134
0.0200036
-0.023052
-0.811392
0.81444
0.0265932
-0.0299103
-0.957798
0.961115
0.0335666
-0.0368447
-1.13382
1.1371
0.0402719
-0.0431344
-1.34412
1.34698
0.0458274
-0.0477242
-1.59537
1.59726
0.0488522
-0.0492569
-1.58285
1.58326
0.0490758
-0.0484966
-1.31545
1.31487
0.0477126
-0.0467078
-1.09898
1.09798
0.0456915
-0.0446051
-0.923546
0.922459
0.0436456
-0.0421287
-0.778469
0.776952
0.0398819
-0.0358501
-0.636118
0.632087
0.030714
-0.0240177
-0.458947
0.452251
0.0177497
-0.0114657
-0.266072
0.259788
0.00676188
-0.00295666
-0.112564
0.108759
0.000838284
-0.016733
0.0158947
-0.0321268
0.033112
-0.000985213
0.00613878
-0.00922713
-0.231542
0.23463
0.0124974
-0.0151226
-0.399318
0.401943
0.0176024
-0.0197597
-0.560559
0.562716
0.0222314
-0.0249286
-0.691921
0.694618
0.0284131
-0.0319137
-0.817485
0.820986
0.0359465
-0.03969
-0.964341
0.968085
0.0437666
-0.0473626
-1.14029
1.14389
0.0510378
-0.0540112
-1.34971
1.35269
0.0566702
-0.058365
-1.59894
1.60064
0.0591405
-0.0590614
-1.58335
1.58328
0.0584029
-0.0572787
-1.31395
1.31282
0.0560126
-0.0544987
-1.09662
1.0951
0.0530461
-0.0514787
-0.92106
0.919493
0.0499862
-0.0478494
-0.774822
0.772686
0.0448456
-0.0398766
-0.627994
0.623025
0.0338831
-0.0263446
-0.445526
0.437987
0.0194337
-0.0125622
-0.253419
0.246548
0.00741798
-0.00324616
-0.104873
0.100702
0.000920304
-0.0150546
0.0141343
-0.0341578
0.0355347
-0.00137695
0.00862233
-0.0130521
-0.238136
0.242565
0.0178058
-0.0216638
-0.405287
0.409145
0.0252846
-0.0282996
-0.566008
0.569023
0.0315285
-0.0348452
-0.697969
0.701286
0.0389907
-0.0430638
-0.824488
0.828562
0.0476796
-0.0519056
-0.971738
0.975964
0.0564409
-0.0603663
-1.14738
1.1513
0.0642754
-0.0673158
-1.35549
1.35853
0.0698555
-0.0712399
-1.60204
1.60342
0.0715487
-0.0708731
-1.58282
1.58214
0.0696354
-0.0678479
-1.31125
1.30946
0.0660081
-0.0638905
-1.09312
1.091
0.0619196
-0.0598349
-0.917516
0.915432
0.0577191
-0.0548758
-0.769888
0.767045
0.0509811
-0.0448944
-0.618011
0.611925
0.0378574
-0.0292674
-0.430414
0.421824
0.0215291
-0.0138932
-0.239551
0.231915
0.00818841
-0.00357088
-0.0964266
0.091809
0.00100735
-0.0132134
0.0122061
-0.0369542
0.0388958
-0.00194151
0.0120146
-0.0181386
-0.24736
0.253484
0.0246793
-0.029973
-0.414016
0.419309
0.0349201
-0.0389566
-0.573502
0.577539
0.0431353
-0.0472655
-0.705393
0.709523
0.0522678
-0.0570564
-0.832638
0.837427
0.0623819
-0.067175
-0.980108
0.984901
0.07222
-0.0764773
-1.1551
1.15936
0.0805688
-0.0835821
-1.36134
1.36435
0.0858545
-0.0867658
-1.60441
1.60533
0.086439
-0.0849962
-1.58098
1.57953
0.0830377
-0.0804756
-1.30713
1.30457
0.0779692
-0.0751943
-1.08829
1.08551
0.0726607
-0.0699573
-0.912805
0.910101
0.0671528
-0.0634403
-0.763463
0.75975
0.0584737
-0.0510488
-0.605785
0.59836
0.0427495
-0.0328552
-0.4132
0.403305
0.0240622
-0.0154497
-0.224116
0.215503
0.00905112
-0.00391232
-0.0870728
0.081934
0.00109119
-0.0112044
0.0101132
-0.0408376
0.0436415
-0.0028039
0.0169058
-0.0252536
-0.259906
0.268254
0.0339939
-0.0410091
-0.426146
0.433161
0.0475485
-0.0528127
-0.583471
0.588736
0.0581994
-0.0633939
-0.714578
0.719773
0.0694646
-0.0751114
-0.842219
0.847866
0.0812429
-0.0866278
-0.989617
0.995002
0.0921303
-0.0965986
-1.16342
1.16789
0.100671
-0.103431
-1.367
1.36976
0.105155
-0.105319
-1.6057
1.60586
0.104096
-0.101649
-1.57748
1.57503
0.0988033
-0.0953347
-1.30137
1.2979
0.0920897
-0.0885941
-1.08197
1.07848
0.0854661
-0.0820394
-0.906645
0.903218
0.0785325
-0.0737616
-0.755146
0.750375
0.0675238
-0.0584961
-0.590847
0.581819
0.0486652
-0.0371499
-0.393385
0.38187
0.0270238
-0.0171907
-0.206711
0.196878
0.00996277
-0.00424422
-0.0766796
0.0709611
0.00116248
-0.0090392
0.00787672
-0.0463659
0.0506259
-0.00426
0.0244901
-0.0358537
-0.276905
0.288269
0.0474363
-0.0567312
-0.442695
0.45199
0.0652444
-0.0719503
-0.596497
0.603203
0.0788548
-0.0855016
-0.725915
0.732562
0.0927315
-0.0991777
-0.853473
0.859919
0.10596
-0.111713
-1.00021
1.00596
0.117348
-0.121685
-1.17199
1.17633
0.125334
-0.12746
-1.37196
1.37409
0.128222
-0.127272
-1.60529
1.60434
0.124832
-0.121113
-1.57184
1.56812
0.117186
-0.112637
-1.29372
1.28917
0.108524
-0.104241
-1.07403
1.06975
0.100508
-0.0963037
-0.898778
0.894573
0.0920238
-0.0859819
-0.744514
0.738472
0.0782151
-0.0672521
-0.572616
0.561653
0.0555624
-0.0420652
-0.370342
0.356845
0.0302995
-0.0190007
-0.186912
0.175613
0.0108351
-0.004523
-0.0651782
0.0588661
0.00120763
-0.00674944
0.0055418
-0.0545974
0.0619229
-0.00732554
0.0378918
-0.0536667
-0.300465
0.31624
0.0692122
-0.0815874
-0.465252
0.477627
0.0921679
-0.100263
-0.613065
0.62116
0.108729
-0.116633
-0.73982
0.747724
0.124765
-0.131604
-0.866143
0.872981
0.138451
-0.143972
-1.01126
1.01678
0.149074
-0.152665
-1.17999
1.18358
0.155248
-0.156146
-1.37534
1.37624
0.155367
-0.152834
-1.60238
1.59985
0.148823
-0.143564
-1.5635
1.55824
0.138365
-0.132579
-1.2838
1.27802
0.127463
-0.122244
-1.06436
1.05914
0.117807
-0.112873
-0.889106
0.884172
0.107603
-0.0999596
-0.731094
0.723451
0.0903003
-0.0769577
-0.550277
0.536934
0.0630307
-0.0472515
-0.343325
0.327546
0.0336205
-0.020728
-0.164385
0.151493
0.0115894
-0.00472069
-0.052661
0.0457923
0.0012143
-0.00439564
0.00318134
-0.0687786
0.0728709
-0.00409229
0.0289496
-0.0425791
-0.334547
0.348176
0.0563212
-0.0675451
-0.495164
0.506388
0.0775541
-0.0869351
-0.632819
0.6422
0.0973893
-0.106748
-0.755248
0.764607
0.117053
-0.12617
-0.878963
0.88808
0.135777
-0.144205
-1.02135
1.02978
0.152819
-0.159977
-1.18605
1.1932
0.166729
-0.171661
-1.37592
1.38085
0.175313
-0.176655
-1.59602
1.59736
0.175621
-0.172719
-1.55183
1.54892
0.168816
-0.163716
-1.2713
1.2662
0.158946
-0.153373
-1.0527
1.04713
0.148634
-0.143122
-0.877459
0.871948
0.136678
-0.126018
-0.714067
0.703407
0.112128
-0.0935218
-0.522832
0.504225
0.0747851
-0.0540494
-0.311477
0.290741
0.037043
-0.021851
-0.139101
0.123909
0.0116973
-0.00455639
-0.0395353
0.0323943
0.00111049
-0.0020841
0.000973607
-0.0799878
0.0781399
0.00184786
0.00730596
-0.0162547
-0.364667
0.373615
0.0266617
-0.0345899
-0.522347
0.530275
0.0425822
-0.050583
-0.653899
0.6619
0.0602006
-0.069008
-0.773649
0.782456
0.0782784
-0.0867003
-0.89668
0.905102
0.095552
-0.102983
-1.03793
1.04536
0.110746
-0.116816
-1.20016
1.20623
0.122437
-0.126186
-1.38542
1.38917
0.128229
-0.128097
-1.59773
1.5976
0.125553
-0.121099
-1.54506
1.5406
0.115656
-0.108955
-1.2604
1.2537
0.102692
-0.0957233
-1.04021
1.03324
0.089366
-0.0822024
-0.862343
0.855179
0.0750522
-0.0657473
-0.688841
0.679536
0.0554246
-0.0428955
-0.483927
0.471398
0.0315545
-0.0206674
-0.269962
0.259075
0.0129732
-0.00706226
-0.109492
0.103581
0.00360301
-0.00139943
-0.0257252
0.0235216
0.000378143
0.000106539
-0.000484683
-0.0813973
0.0785285
0.00286877
-0.00176574
-0.0034143
-0.384972
0.390152
0.0104733
-0.0163089
-0.542358
0.548194
0.0223462
-0.0292472
-0.671838
0.678739
0.03756
-0.0452121
-0.790399
0.798051
0.0535197
-0.0609187
-0.912825
0.920224
0.0684528
-0.0751226
-1.05263
1.0593
0.0818626
-0.0871875
-1.21185
1.21718
0.0916291
-0.094287
-1.39219
1.39485
0.0954502
-0.0943128
-1.59663
1.59549
0.0908088
-0.0854237
-1.53533
1.52995
0.0792697
-0.0720255
-1.24665
1.2394
0.0648904
-0.0571849
-1.02531
1.01761
0.0500665
-0.0421304
-0.845731
0.837795
0.0350474
-0.0270315
-0.666471
0.658455
0.019277
-0.0111335
-0.456951
0.448807
0.00547559
-0.0016471
-0.247413
0.243585
-6.47859e-05
0.000629465
-0.0970693
0.0965046
-0.000532212
0.000237467
-0.020987
0.0212818
-7.12469e-05
0.000916822
-0.000845575
-0.080161
0.0774672
0.00269388
-0.00526865
0.00276407
-0.398517
0.401022
0.00177532
-0.00623827
-0.557282
0.561745
0.0113931
-0.0171971
-0.686651
0.692455
0.0243465
-0.0309537
-0.805107
0.811714
0.0381112
-0.044506
-0.927134
0.933529
0.0513896
-0.0570749
-1.06556
1.07125
0.0629933
-0.0672054
-1.22209
1.2263
0.0709732
-0.0730927
-1.39728
1.3994
0.0736033
-0.0718016
-1.59392
1.59211
0.0681542
-0.0627279
-1.52405
1.51863
0.0565462
-0.048886
-1.23189
1.22423
0.0415979
-0.0335125
-1.00912
1.00104
0.0257776
-0.0176119
-0.827956
0.81979
0.0103126
-0.00340886
-0.647099
0.640195
-0.00222915
0.00673834
-0.439111
0.434601
-0.00849505
0.00830171
-0.237305
0.237499
-0.00702528
0.0049257
-0.0947652
0.0968648
-0.00306582
0.00132939
-0.0210682
0.0228046
-0.000362348
0.000936063
-0.000573715
-0.0787169
0.0763485
0.00236842
-0.0063123
0.0053607
-0.407599
0.408551
-0.00200264
-0.00128993
-0.56933
0.572623
0.00555393
-0.0108569
-0.699129
0.704432
0.0169062
-0.0227534
-0.817647
0.823494
0.0289991
-0.0345881
-0.939504
0.945093
0.0405234
-0.0456159
-1.07681
1.0819
0.0506552
-0.0545725
-1.23039
1.23431
0.0578276
-0.059581
-1.40119
1.40294
0.0598134
-0.0578551
-1.59019
1.58823
0.0541351
-0.0484892
-1.51256
1.50691
0.0423174
-0.0348305
-1.21652
1.20903
0.0275776
-0.0193907
-0.992386
0.984199
0.0119363
-0.00412329
-0.810277
0.802464
-0.00237477
0.00812103
-0.630183
0.624437
-0.0122696
0.0150067
-0.427572
0.424835
-0.0151624
0.0131593
-0.23454
0.236543
-0.0104928
0.00728431
-0.0977566
0.100965
-0.00448258
0.00194282
-0.0240462
0.026586
-0.000509001
0.00026221
0.000246791
-0.0774074
0.0753898
0.00201761
-0.00614061
0.00566232
-0.413898
0.414376
-0.00365411
0.000971302
-0.578711
0.581394
0.00325186
-0.00782284
-0.709794
0.714365
0.0130753
-0.0181941
-0.828568
0.833687
0.0237878
-0.028815
-0.950358
0.955385
0.0342828
-0.0387846
-1.08673
1.09123
0.0433794
-0.0469732
-1.23797
1.24157
0.0499109
-0.0514603
-1.40448
1.40602
0.0515335
-0.049856
-1.58619
1.58452
0.0460724
-0.0406039
-1.5008
1.49533
0.0345284
-0.0272707
-1.20135
1.1941
0.0206257
-0.0129568
-0.975955
0.968286
0.00615096
0.000805146
-0.794076
0.787119
-0.00657718
0.0117948
-0.615799
0.610581
-0.0152123
0.0174062
-0.419475
0.417281
-0.0169256
0.0144156
-0.235317
0.237827
-0.0114971
0.00797402
-0.102992
0.106515
-0.00492423
0.00220803
-0.028433
0.0311492
-0.000626731
-0.000711164
0.00133789
-0.0764459
0.0748843
0.00156161
-0.00523542
0.00507135
-0.41864
0.418804
-0.00343791
0.00137978
-0.586954
0.589012
0.00260615
-0.00676469
-0.719109
0.723268
0.011782
-0.0162279
-0.838416
0.842862
0.0211794
-0.0256721
-0.960401
0.964893
0.0309082
-0.0350601
-1.09579
1.09994
0.0392283
-0.042724
-1.24502
1.24851
0.0459253
-0.047432
-1.40764
1.40914
0.047668
-0.0460401
-1.58247
1.58084
0.0427885
-0.0374819
-1.4897
1.48439
0.0320864
-0.0257098
-1.18687
1.18049
0.0197124
-0.013134
-0.960921
0.954343
0.00698291
-0.000314192
-0.779543
0.772875
-0.00507677
0.010436
-0.602795
0.597436
-0.0137823
0.0155746
-0.412665
0.410873
-0.0153574
0.0133252
-0.237215
0.239248
-0.0106558
0.00740443
-0.108637
0.111888
-0.00460401
0.00211341
-0.0329991
0.0354897
-0.000631293
-0.0017836
0.00241489
-0.0759912
0.0747732
0.00121809
-0.0041538
0.00410778
-0.422454
0.4225
-0.00265343
0.000698769
-0.594171
0.596126
0.0031499
-0.00689352
-0.727534
0.731277
0.0112239
-0.0155341
-0.84725
0.85156
0.0201417
-0.0248035
-0.969216
0.973878
0.0293736
-0.0334109
-1.10421
1.10825
0.0377961
-0.0411447
-1.25194
1.25528
0.0439876
-0.0460122
-1.41061
1.41263
0.0465701
-0.0454254
-1.57934
1.57819
0.0426532
-0.0383913
-1.47948
1.47522
0.0338456
-0.0284151
-1.17414
1.16871
0.0233025
-0.0174148
-0.947858
0.94197
0.0117038
-0.00540407
-0.765827
0.759528
-0.000437837
0.00572723
-0.589987
0.584698
-0.00910316
0.0110466
-0.406573
0.404629
-0.011263
0.00984818
-0.238639
0.240054
-0.0079516
0.00558002
-0.113366
0.115738
-0.00351697
0.00164108
-0.0369239
0.0387998
-0.000510306
-0.00277166
0.00328197
-0.0760619
0.0750495
0.00101235
-0.00288594
0.00259641
-0.425895
0.426184
-0.00131938
-0.000689844
-0.600784
0.602793
0.00421193
-0.00783033
-0.7354
0.739019
0.0119915
-0.0159137
-0.855651
0.859573
0.020662
-0.0245812
-0.977992
0.981912
0.0291775
-0.0331021
-1.11247
1.1164
0.0374571
-0.0410798
-1.25866
1.26228
0.0443009
-0.0462206
-1.41447
1.41639
0.0472922
-0.0468149
-1.5771
1.57662
0.0450678
-0.0416279
-1.47112
1.46768
0.0379797
-0.0333571
-1.16367
1.15905
0.0288308
-0.0232322
-0.935908
0.930309
0.0177315
-0.0113078
-0.752529
0.746105
0.00551624
2.80637e-06
-0.577716
0.572196
-0.0035357
0.00543311
-0.400191
0.398293
-0.0061091
0.00560975
-0.238852
0.239351
-0.00467071
0.00330824
-0.116354
0.117716
-0.00211185
0.00103054
-0.0395391
0.0406205
-0.000334282
-0.00347818
0.00381247
-0.0764113
0.0757115
0.000699762
-0.00175257
0.00106086
-0.429452
0.430143
-1.65926e-05
-0.0022804
-0.606608
0.608905
0.00544868
-0.0089386
-0.742732
0.746222
0.0129268
-0.0169849
-0.863351
0.867409
0.0211481
-0.0252622
-0.986058
0.990172
0.0298754
-0.0336523
-1.12077
1.12455
0.0381621
-0.0418021
-1.26574
1.26938
0.045161
-0.0477036
-1.41877
1.42131
0.0494359
-0.0495036
-1.57633
1.5764
0.0483425
-0.0459632
-1.46465
1.46227
0.0430854
-0.0389232
-1.15444
1.15028
0.0345626
-0.0292523
-0.924514
0.919204
0.0234103
-0.0171642
-0.73901
0.732764
0.0115074
-0.00606552
-0.565757
0.560315
0.00248106
-3.53975e-05
-0.393669
0.391224
-0.00102165
0.00143624
-0.237664
0.237249
-0.00135155
0.00104239
-0.117385
0.117694
-0.000748359
0.000420634
-0.0406578
0.0409855
-0.00016173
-0.00384461
0.00400634
-0.0771701
0.0766251
0.000545029
-0.000800733
0.000227992
-0.433238
0.433811
0.00158428
-0.00363719
-0.612677
0.61473
0.00694597
-0.010314
-0.749558
0.752927
0.014148
-0.0178194
-0.871136
0.874807
0.02213
-0.025966
-0.994311
0.998147
0.0305737
-0.0348226
-1.1288
1.13305
0.03902
-0.0430264
-1.27309
1.2771
0.0468572
-0.0495734
-1.4238
1.42652
0.0518225
-0.0528593
-1.5768
1.57784
0.0523374
-0.0507099
-1.45991
1.45828
0.0480399
-0.0442028
-1.14614
1.1423
0.0400443
-0.0346654
-0.913331
0.907952
0.0290823
-0.0229815
-0.725767
0.719666
0.0175976
-0.0123138
-0.554054
0.54877
0.00857702
-0.00574801
-0.386713
0.383884
0.00386272
-0.00256886
-0.234774
0.23348
0.00167416
-0.000910495
-0.1164
0.115636
0.000373976
-2.81572e-05
-0.0403684
0.0400225
-5.1497e-05
-0.00386229
0.00391379
-0.0781926
0.0778315
0.000361088
0.000237574
-0.00108088
-0.437115
0.437958
0.0027052
-0.00506884
-0.618281
0.620644
0.00830993
-0.0115259
-0.75615
0.759366
0.0154409
-0.0189713
-0.878455
0.881986
0.0231484
-0.027132
-1.00248
1.00646
0.0316737
-0.0359109
-1.13717
1.14141
0.0403476
-0.0443993
-1.28104
1.28509
0.0484489
-0.0519605
-1.42955
1.43307
0.054745
-0.0561711
-1.5789
1.58032
0.0563796
-0.0550127
-1.45657
1.4552
0.052748
-0.0492126
-1.13832
1.13479
0.0449254
-0.0396571
-0.902177
0.896908
0.0343059
-0.0283887
-0.713075
0.707158
0.0233842
-0.0182214
-0.543062
0.5379
0.0143815
-0.0109068
-0.379213
0.375739
0.00839708
-0.00616072
-0.23014
0.227904
0.00425613
-0.0025363
-0.113445
0.111725
0.00131467
-0.000437861
-0.0387768
0.0379
5.7916e-05
-0.00361952
0.0035616
-0.0794379
0.0792028
0.000235052
0.0011243