/*--------------------------------*- C++ -*----------------------------------*\
  =========                 |
  \\      /  F ield         | OpenFOAM: The Open Source CFD Toolbox
   \\    /   O peration     | Website:  https://openfoam.org
    \\  /    A nd           | Version:  9
     \\/     M anipulation  |
\*---------------------------------------------------------------------------*/
FoamFile
{
    format      ascii;
    class       volScalarField;
    location    "45";
    object      p;
}
// * * * * * * * * * * * * * * * * * * * * * * * * * * * * * * * * * * * * * //

dimensions      [0 2 -2 0 0 0 0];

internalField   nonuniform List<scalar> 
8800
(
0.844333
0.796545
0.757853
0.728854
0.707984
0.693144
0.682536
0.675042
0.670202
0.668119
0.669357
0.673521
0.680147
0.689448
0.702217
0.719943
0.744714
0.778651
0.821198
0.879899
0.675589
0.683268
0.690736
0.694042
0.692534
0.68745
0.680955
0.674865
0.670123
0.667255
0.666945
0.669421
0.673885
0.679812
0.686567
0.692837
0.69647
0.69573
0.690305
0.68161
0.654004
0.660163
0.664287
0.667225
0.669267
0.669862
0.668742
0.666621
0.664581
0.663644
0.664573
0.666924
0.669699
0.671862
0.672455
0.671245
0.668894
0.665495
0.660934
0.657173
0.648218
0.650867
0.653614
0.65601
0.657636
0.658786
0.659512
0.65961
0.659289
0.659205
0.659919
0.661054
0.661866
0.661908
0.661281
0.660176
0.658349
0.65577
0.653362
0.651858
0.642869
0.644292
0.646065
0.648089
0.649863
0.651191
0.652161
0.652934
0.653518
0.654042
0.654648
0.655104
0.655168
0.654852
0.654133
0.652866
0.651156
0.649297
0.647984
0.647152
0.637833
0.638752
0.639987
0.641544
0.643164
0.644673
0.645937
0.646975
0.647902
0.648748
0.649383
0.64966
0.649575
0.649099
0.648189
0.646965
0.645618
0.644343
0.643514
0.642964
0.632978
0.633647
0.634603
0.635894
0.637289
0.638728
0.640142
0.641431
0.642586
0.643635
0.644389
0.644692
0.644553
0.643996
0.643151
0.642173
0.641134
0.640192
0.6396
0.639195
0.62826
0.628776
0.629552
0.63067
0.631931
0.633282
0.634699
0.636131
0.637507
0.638772
0.639695
0.640084
0.639987
0.63954
0.638886
0.638119
0.637309
0.636603
0.636161
0.635845
0.623609
0.624019
0.624668
0.62566
0.626847
0.628148
0.629558
0.631067
0.632625
0.634135
0.635277
0.63583
0.635901
0.635652
0.635202
0.634631
0.634015
0.633492
0.63316
0.632904
0.618943
0.619276
0.619836
0.620748
0.621883
0.623165
0.624603
0.626199
0.627926
0.629701
0.631128
0.631943
0.632261
0.632239
0.631996
0.63163
0.631193
0.630822
0.630572
0.630359
0.614178
0.614454
0.614952
0.615817
0.616932
0.618234
0.619737
0.621457
0.62339
0.625468
0.627257
0.628414
0.62903
0.629266
0.629246
0.62908
0.628816
0.628576
0.628392
0.62821
0.609233
0.609465
0.609923
0.610771
0.611905
0.613269
0.614878
0.616776
0.618978
0.621433
0.623668
0.625237
0.626198
0.626725
0.626951
0.626986
0.626894
0.626769
0.62664
0.62648
0.604022
0.604218
0.604656
0.605518
0.606713
0.608184
0.609955
0.612099
0.614653
0.617591
0.620367
0.622418
0.623778
0.624631
0.625129
0.625371
0.625455
0.625439
0.625356
0.625212
0.598455
0.598621
0.599057
0.599961
0.60126
0.602887
0.604885
0.607351
0.610351
0.613888
0.617325
0.619954
0.621785
0.623013
0.623814
0.624305
0.624561
0.624646
0.624602
0.624469
0.592427
0.592569
0.593016
0.593991
0.595436
0.597278
0.599576
0.602454
0.606016
0.610296
0.614535
0.617862
0.620252
0.621922
0.623069
0.62383
0.624278
0.624468
0.624461
0.624336
0.585812
0.585928
0.5864
0.587476
0.589117
0.591242
0.593925
0.597327
0.601587
0.606772
0.611994
0.616168
0.619229
0.621421
0.622972
0.624033
0.624701
0.625
0.625028
0.624907
0.578442
0.578533
0.579046
0.58026
0.582156
0.584644
0.587827
0.591902
0.59705
0.603364
0.609772
0.614945
0.618792
0.621593
0.62362
0.625038
0.625947
0.626363
0.626426
0.626306
0.570117
0.570209
0.570772
0.572135
0.574355
0.577308
0.581121
0.586035
0.592282
0.599981
0.607829
0.614211
0.618995
0.622529
0.625135
0.626968
0.628152
0.628693
0.62879
0.628667
0.560532
0.560602
0.561251
0.56283
0.565469
0.569018
0.573634
0.579609
0.587225
0.596622
0.606211
0.614034
0.619936
0.624333
0.627621
0.629949
0.631451
0.632133
0.632265
0.632136
0.549333
0.549385
0.550125
0.552009
0.555186
0.559504
0.565144
0.572472
0.581808
0.593291
0.604983
0.614514
0.621726
0.627146
0.631225
0.634147
0.636014
0.636847
0.637012
0.636874
0.535988
0.536024
0.53691
0.539198
0.543085
0.548417
0.555405
0.564484
0.575999
0.590052
0.604233
0.615755
0.624499
0.631108
0.636109
0.639716
0.641993
0.642988
0.643182
0.643031
0.519749
0.519774
0.52087
0.523719
0.528571
0.535268
0.544045
0.55539
0.56963
0.586795
0.603944
0.6178
0.628313
0.636305
0.642395
0.646797
0.649535
0.650696
0.650911
0.650741
0.499494
0.499518
0.500942
0.504633
0.510887
0.519525
0.530784
0.545163
0.562897
0.583846
0.604408
0.62086
0.633343
0.642893
0.650185
0.655502
0.658729
0.660047
0.660268
0.660073
0.473425
0.473469
0.475473
0.480553
0.489
0.500506
0.515257
0.533652
0.555727
0.581149
0.605622
0.624991
0.63965
0.650907
0.659536
0.665831
0.669549
0.670989
0.671192
0.670967
0.438513
0.438664
0.44187
0.449531
0.461712
0.477614
0.497368
0.52107
0.548503
0.579121
0.607891
0.63036
0.647304
0.660352
0.670414
0.677694
0.681827
0.68332
0.683475
0.683215
0.388988
0.389961
0.39639
0.40938
0.428082
0.450809
0.477473
0.507885
0.541637
0.578039
0.611391
0.637062
0.656329
0.671203
0.682704
0.690864
0.695263
0.696702
0.696778
0.696486
0.31591
0.323146
0.338103
0.361094
0.389527
0.421401
0.456532
0.494699
0.535501
0.578246
0.616584
0.645775
0.667643
0.684579
0.697698
0.706725
0.711385
0.712812
0.712861
0.712606
0.237092
0.25422
0.278499
0.312118
0.350715
0.391912
0.435626
0.481801
0.530127
0.580007
0.624395
0.658115
0.683402
0.703003
0.718178
0.728302
0.733134
0.734447
0.734533
0.734418
0.171532
0.191725
0.223767
0.266315
0.313862
0.363842
0.415871
0.469888
0.525589
0.582402
0.632569
0.670542
0.698998
0.721026
0.737849
0.748595
0.753399
0.754907
0.755063
0.75502
0.11784
0.139714
0.177243
0.226196
0.280781
0.33814
0.39752
0.458736
0.521361
0.584755
0.640375
0.6823
0.713641
0.737768
0.756026
0.767718
0.773333
0.774709
0.77488
0.77488
0.0730325
0.0960882
0.137395
0.191429
0.251698
0.31514
0.380814
0.448414
0.517357
0.586864
0.647577
0.693151
0.727091
0.753181
0.77288
0.785595
0.791667
0.793173
0.793438
0.793485
0.0348249
0.058565
0.102721
0.160787
0.225833
0.294448
0.365587
0.438849
0.513524
0.588675
0.654115
0.703038
0.739367
0.767228
0.788119
0.801545
0.808054
0.809851
0.810196
0.810254
0.00123473
0.0254416
0.0718679
0.13324
0.202314
0.27542
0.3514
0.429754
0.509668
0.590042
0.659864
0.711869
0.750336
0.779675
0.801496
0.815493
0.822356
0.824489
0.824897
0.82495
-0.0291857
-0.00456586
0.0437192
0.107915
0.180457
0.257488
0.337792
0.420775
0.50552
0.590773
0.664722
0.719601
0.759984
0.790534
0.813
0.827339
0.834499
0.836871
0.837334
0.837376
-0.0573547
-0.0323469
0.0175419
0.0841333
0.159728
0.24023
0.324414
0.411622
0.500862
0.590734
0.668645
0.726292
0.768452
0.800011
0.822846
0.837456
0.844824
0.847377
0.847869
0.847892
-0.0840429
-0.0586023
-0.00721803
0.0614448
0.139735
0.223328
0.311013
0.402097
0.495536
0.589832
0.671642
0.732039
0.775912
0.80836
0.83158
0.846345
0.853847
0.856487
0.856966
0.856949
-0.109578
-0.0836979
-0.0311868
0.0395328
0.120207
0.206574
0.297425
0.392071
0.489448
0.588027
0.67374
0.736928
0.782511
0.81582
0.839401
0.854317
0.861869
0.864511
0.865014
0.864982
-0.134363
-0.107909
-0.0543429
0.01817
0.100969
0.189827
0.283553
0.381468
0.482544
0.585283
0.674945
0.741028
0.788394
0.822615
0.846577
0.861611
0.869167
0.871765
0.872222
0.872161
-0.158513
-0.131613
-0.0768656
-0.00277288
0.081932
0.173021
0.269345
0.370258
0.474797
0.581577
0.675249
0.744383
0.79368
0.828923
0.853326
0.868466
0.875967
0.878476
0.878843
0.878728
-0.182132
-0.154689
-0.0989051
-0.0233699
0.0630596
0.156144
0.254799
0.358439
0.466204
0.576881
0.67461
0.747
0.798451
0.83488
0.85977
0.874958
0.882283
0.884617
0.88488
0.884715
-0.205324
-0.177285
-0.120502
-0.0436349
0.0443363
0.139207
0.239948
0.346047
0.456782
0.571171
0.672967
0.748843
0.802763
0.840602
0.866014
0.881135
0.888156
0.890223
0.89038
0.890183
-0.228084
-0.199373
-0.141643
-0.0635458
0.0258097
0.122252
0.224845
0.333136
0.446569
0.564429
0.670252
0.749839
0.806615
0.84621
0.872235
0.887113
0.893612
0.89532
0.895362
0.895146
-0.250243
-0.220908
-0.16227
-0.083069
0.00752229
0.105353
0.209557
0.319786
0.435625
0.556677
0.666396
0.749884
0.809943
0.851799
0.878691
0.893136
0.898754
0.899917
0.89983
0.899613
-0.271774
-0.241847
-0.182357
-0.102149
-0.0104656
0.0885719
0.194179
0.306078
0.424032
0.547941
0.661348
0.748841
0.812615
0.857379
0.885703
0.899701
0.903892
0.904081
0.903785
0.903622
-0.292734
-0.262145
-0.201868
-0.120745
-0.0280883
0.0719919
0.178799
0.292116
0.411879
0.538286
0.655064
0.746566
0.814411
0.86278
0.893502
0.90764
0.909996
0.908256
0.907318
0.907417
-0.312949
-0.281777
-0.220742
-0.138791
-0.0452847
0.0556963
0.163511
0.27801
0.399282
0.527807
0.647541
0.742901
0.815038
0.867575
0.90189
0.917824
0.919196
0.914719
0.911558
0.910928
-0.332508
-0.30073
-0.238996
-0.156317
-0.0620887
0.0396383
0.148257
0.263697
0.386168
0.516426
0.63864
0.73757
0.81416
0.871138
0.910004
0.93023
0.933687
0.928241
0.919103
0.904057
-0.351335
-0.318995
-0.256749
-0.173519
-0.0787917
0.0234809
0.132617
0.248691
0.371992
0.503495
0.627699
0.729757
0.811135
0.872547
0.915722
0.941863
0.948421
0.936951
0.91763
0.904275
-0.369257
-0.336715
-0.273807
-0.190169
-0.0950658
0.00757169
0.116818
0.233318
0.357063
0.489281
0.614821
0.719053
0.805276
0.870667
0.914395
0.940127
0.950231
0.928627
0.860169
0.82903
-0.385613
-0.355131
-0.28984
-0.205692
-0.11017
-0.0075859
0.101166
0.217803
0.341599
0.473915
0.599962
0.705209
0.795341
0.864961
0.901453
0.920373
0.914851
0.862809
0.793563
0.750779
-0.441792
-0.371332
-0.304469
-0.221158
-0.125675
-0.0234354
0.0855995
0.20187
0.325239
0.456954
0.582549
0.687701
0.777699
0.854113
0.860141
0.867562
0.823988
0.756503
0.680645
0.638289
-0.403165
-0.386998
-0.326163
-0.242584
-0.148284
-0.0462117
0.0618194
0.177404
0.299688
0.429748
0.552961
0.655919
0.737488
0.816794
0.807672
0.699625
0.597078
0.525697
0.453213
0.485355
-0.434464
-0.404951
-0.343119
-0.260294
-0.165943
-0.0641144
0.0441684
0.159094
0.280279
0.408444
0.528661
0.627322
0.700504
0.742052
0.695623
0.55121
0.425984
0.336177
0.238093
0.28965
-0.458601
-0.426151
-0.363072
-0.280006
-0.18556
-0.0838231
0.0243779
0.138462
0.258222
0.383911
0.500295
0.592969
0.657147
0.665566
0.561784
0.391336
0.240432
0.122916
-0.00767886
0.0260337
-0.482212
-0.448218
-0.383963
-0.300008
-0.205384
-0.103761
0.00393355
0.117052
0.235192
0.358049
0.469745
0.555557
0.604321
0.581954
0.426262
0.231767
0.0425414
-0.124816
-0.31361
-0.33073
-0.505169
-0.47075
-0.405613
-0.32089
-0.226048
-0.12461
-0.0175447
0.0944926
0.210765
0.330429
0.436808
0.515267
0.545635
0.487886
0.297425
0.088421
-0.128148
-0.317276
-0.559873
-0.862113
-0.528394
-0.493982
-0.428311
-0.343085
-0.248014
-0.14671
-0.0401987
0.0707288
0.185033
0.301277
0.402125
0.472187
0.483217
0.37487
0.185516
-0.0229372
-0.226469
-0.398374
-0.466461
-0.547381
-0.552807
-0.518363
-0.452404
-0.366938
-0.27178
-0.170697
-0.0648289
0.0448181
0.15684
0.269151
0.364077
0.423493
0.410298
0.268427
0.0863056
-0.103083
-0.264695
-0.356716
-0.38058
-0.3967
-0.578724
-0.544188
-0.478053
-0.39252
-0.297462
-0.196767
-0.0917815
0.0162818
0.125597
0.233333
0.321812
0.367779
0.337185
0.169623
-0.00356889
-0.16776
-0.293117
-0.331751
-0.344949
-0.346236
-0.606332
-0.571617
-0.505306
-0.419805
-0.324993
-0.224913
-0.121062
-0.0149199
0.0912436
0.193811
0.274988
0.307154
0.258215
0.0780483
-0.0860916
-0.232911
-0.308505
-0.325522
-0.327033
-0.326876
-0.635675
-0.600673
-0.534169
-0.448772
-0.354368
-0.255102
-0.152653
-0.048787
0.0537879
0.150637
0.223552
0.244109
0.160119
-0.00598737
-0.162162
-0.282943
-0.318887
-0.317754
-0.317087
-0.316562
-0.66645
-0.631205
-0.564515
-0.479312
-0.385476
-0.287254
-0.186501
-0.0852733
0.0132678
0.1039
0.168305
0.172532
0.0697115
-0.0846765
-0.222577
-0.297597
-0.308065
-0.310636
-0.311322
-0.311025
-0.698076
-0.662683
-0.59607
-0.511174
-0.4181
-0.321178
-0.222418
-0.124218
-0.0301295
0.053889
0.109483
0.0983911
-0.0118366
-0.151618
-0.267392
-0.297915
-0.307288
-0.309185
-0.308959
-0.30853
-0.730083
-0.694569
-0.628338
-0.543933
-0.451856
-0.356511
-0.260076
-0.165292
-0.0760878
0.00120373
0.0461856
0.0261232
-0.0882128
-0.205466
-0.29963
-0.316864
-0.309562
-0.309015
-0.309175
-0.308875
-0.761575
-0.726168
-0.660451
-0.57693
-0.486157
-0.392722
-0.298958
-0.207952
-0.12407
-0.0536362
-0.0187771
-0.0447004
-0.159367
-0.245956
-0.30491
-0.314721
-0.312902
-0.310743
-0.310376
-0.31035
-0.790945
-0.756252
-0.691413
-0.609219
-0.520178
-0.429037
-0.338319
-0.251396
-0.173185
-0.109958
-0.0795507
-0.128169
-0.228184
-0.276946
-0.283899
-0.312066
-0.318656
-0.316355
-0.316287
-0.316158
-0.816631
-0.782966
-0.720091
-0.639605
-0.552822
-0.464418
-0.377165
-0.294573
-0.222143
-0.166739
-0.139335
-0.218436
-0.317632
-0.304008
-0.294389
-0.326327
-0.346486
-0.354929
-0.356483
-0.355761
-0.836531
-0.804534
-0.744311
-0.666632
-0.582723
-0.497623
-0.414223
-0.336182
-0.269375
-0.222144
-0.201609
-0.306919
-0.451281
-0.501978
-0.449347
-0.460113
-0.461433
-0.461062
-0.454818
-0.449821
-0.848403
-0.819018
-0.762343
-0.68836
-0.608306
-0.527183
-0.44806
-0.374641
-0.313057
-0.273384
-0.262716
-0.384404
-0.627811
-0.949059
-0.896433
-0.685482
-0.584099
-0.547753
-0.533063
-0.528181
-0.849647
-0.82421
-0.772178
-0.703005
-0.627817
-0.551515
-0.47705
-0.408196
-0.351159
-0.315963
-0.308596
-0.412787
-0.623096
-0.948636
-0.914708
-0.655647
-0.523745
-0.479087
-0.468586
-0.465626
-0.838499
-0.81779
-0.771788
-0.708979
-0.639754
-0.569079
-0.499634
-0.43513
-0.381084
-0.345323
-0.323456
-0.300695
-0.22689
-0.308576
-0.374997
-0.345258
-0.333687
-0.333105
-0.333158
-0.331021
-0.812578
-0.796614
-0.759431
-0.705114
-0.643167
-0.578831
-0.514634
-0.45386
-0.401242
-0.364882
-0.327704
-0.138323
0.213889
0.568157
0.330287
-0.0230017
-0.231415
-0.268051
-0.277277
-0.279877
-0.774059
-0.763483
-0.735637
-0.691618
-0.63813
-0.580653
-0.52163
-0.46371
-0.41179
-0.371371
-0.321772
-0.208889
0.0471183
0.410429
0.225657
-0.103578
-0.289856
-0.305336
-0.33819
-0.356537
-0.729123
-0.723022
-0.705118
-0.671214
-0.626612
-0.575586
-0.521089
-0.465557
-0.412404
-0.369756
-0.33941
-0.482268
-0.983709
-1.6955
-2.16983
-2.40613
-2.26446
-1.83993
-1.43475
-1.3345
-0.687028
-0.683408
-0.673997
-0.649393
-0.611866
-0.565856
-0.514543
-0.459028
-0.403012
-0.352268
-0.336208
-0.604986
-1.43184
-2.55746
-3.09097
-3.07386
-2.78209
-2.35031
-2.01513
-1.86997
-0.655313
-0.653036
-0.648259
-0.631266
-0.598827
-0.555202
-0.504032
-0.446104
-0.382158
-0.312827
-0.265588
-0.308656
-0.409652
-0.331184
-0.143771
0.19478
0.521104
0.737763
0.872089
0.931144
-0.630617
-0.629719
-0.628279
-0.618788
-0.590885
-0.547448
-0.493428
-0.429498
-0.356722
-0.271943
-0.176289
-0.0589105
0.151739
0.583894
1.13622
1.62248
1.98342
2.19049
2.2811
2.30592
-0.615965
-0.615388
-0.614865
-0.610463
-0.587724
-0.543352
-0.484211
-0.413577
-0.329676
-0.228541
-0.110173
0.0149463
0.292102
0.800792
1.37272
1.88516
2.2494
2.4517
2.53608
2.55652
-0.607568
-0.607136
-0.606509
-0.605263
-0.587987
-0.543254
-0.478648
-0.400903
-0.308137
-0.202286
-0.0851171
0.0370749
0.252984
0.72062
1.21122
1.64078
1.9454
2.11422
2.18448
2.2026
-0.60417
-0.603039
-0.60097
-0.600901
-0.591475
-0.548387
-0.478142
-0.393075
-0.296654
-0.189626
-0.0830036
0.0272903
0.174972
0.545108
0.934061
1.25201
1.48166
1.60914
1.66346
1.678
-0.615096
-0.612367
-0.608839
-0.610105
-0.605763
-0.560602
-0.480661
-0.386963
-0.288207
-0.183798
-0.0886975
0.00331881
0.108939
0.372765
0.65871
0.885233
1.05005
1.14139
1.18099
1.19108
-0.647327
-0.646604
-0.650576
-0.655337
-0.645405
-0.579035
-0.48039
-0.376749
-0.27662
-0.177837
-0.096278
-0.0256635
0.0500448
0.241772
0.441009
0.596257
0.708133
0.771115
0.798017
0.804524
-0.673782
-0.681939
-0.697263
-0.701823
-0.67097
-0.577801
-0.463328
-0.355639
-0.25964
-0.17121
-0.103561
-0.054963
-0.0139938
0.121934
0.270157
0.383243
0.461868
0.50414
0.522241
0.525928
-0.611819
-0.622588
-0.638919
-0.640096
-0.603359
-0.51337
-0.411167
-0.316371
-0.233251
-0.158962
-0.101862
-0.0640988
-0.0295073
0.0703138
0.169717
0.242096
0.293163
0.321545
0.333198
0.335098
-0.428929
-0.437381
-0.448461
-0.45084
-0.428089
-0.376939
-0.31673
-0.25484
-0.195006
-0.136925
-0.0893563
-0.0559568
-0.0230215
0.0453791
0.113373
0.162657
0.193543
0.209955
0.216873
0.217668
-0.21231
-0.21644
-0.224047
-0.23248
-0.234254
-0.225766
-0.207922
-0.181759
-0.148955
-0.109757
-0.0715516
-0.0384431
-0.00851073
0.0368697
0.0771661
0.107955
0.131392
0.145504
0.150923
0.150663
-0.0496973
-0.0518825
-0.0585703
-0.0722083
-0.091131
-0.108218
-0.117491
-0.11666
-0.104979
-0.0822778
-0.0520696
-0.0191294
0.0122994
0.0404141
0.0654549
0.0859184
0.100428
0.10926
0.11297
0.112369
0.0363057
0.0349164
0.0288442
0.0139104
-0.00977384
-0.0351411
-0.0556848
-0.0677765
-0.0691394
-0.0582348
-0.0363224
-0.00764378
0.0199919
0.0349824
0.046677
0.0606581
0.0731458
0.0815721
0.0842315
0.0828024
0.066548
0.065493
0.0605609
0.0479403
0.0271977
0.00322666
-0.0190191
-0.0357858
-0.0443086
-0.0423202
-0.0289536
-0.0084409
0.0107933
0.0160323
0.0226246
0.0337628
0.0438229
0.0500876
0.0515595
0.0500477
0.0679248
0.0671461
0.0635374
0.0541968
0.038399
0.0190171
-0.00063228
-0.0175721
-0.0293565
-0.0337828
-0.0293009
-0.0189905
-0.0104309
-0.0124448
-0.00899677
0.000841548
0.0100657
0.015274
0.0161142
0.0144533
0.0574247
0.0568941
0.0544206
0.0479272
0.036623
0.022002
0.0059806
-0.00933694
-0.0222435
-0.0315089
-0.0360417
-0.0378308
-0.0412299
-0.0467849
-0.0436017
-0.0348389
-0.0275718
-0.0244392
-0.0240267
-0.0252264
0.0433868
0.0430343
0.0413957
0.0370377
0.029207
0.0185459
0.006054
-0.00715454
-0.0202721
-0.0331238
-0.0456783
-0.0587143
-0.0739663
-0.0809522
-0.0749784
-0.0668101
-0.0618472
-0.0608536
-0.0611629
-0.0618891
0.0295922
0.0293472
0.0282839
0.0254586
0.0201983
0.0126185
0.00309423
-0.00796701
-0.0205845
-0.0356197
-0.0544706
-0.0769972
-0.0969532
-0.102401
-0.0956898
-0.0889546
-0.086521
-0.0866544
-0.087119
-0.0875341
0.0178162
0.0176039
0.0169137
0.0151569
0.01177
0.00655179
-0.0005475
-0.00955463
-0.0210856
-0.0366087
-0.0585774
-0.0855616
-0.109081
-0.110225
-0.102382
-0.0971826
-0.0964305
-0.0976948
-0.0981975
-0.0984573
0.00882583
0.00865001
0.0081816
0.00714579
0.00508137
0.00163882
-0.0034428
-0.0104404
-0.0199638
-0.0344151
-0.0556015
-0.0823727
-0.102462
-0.0994577
-0.0928975
-0.090567
-0.0918506
-0.0936518
-0.0941065
-0.0942851
0.00282011
0.00265518
0.00234658
0.0017703
0.000591785
-0.00156788
-0.00501286
-0.0101271
-0.0175734
-0.0287208
-0.045271
-0.0655429
-0.0783653
-0.0740645
-0.0702075
-0.0713287
-0.0740534
-0.0759694
-0.0764058
-0.0766104
-0.000548729
-0.000678343
-0.000883811
-0.00118895
-0.00181353
-0.00306456
-0.00522225
-0.00854844
-0.0133212
-0.0202115
-0.029444
-0.0396194
-0.0442532
-0.0396362
-0.0404382
-0.0442056
-0.0475448
-0.0490461
-0.0494496
-0.049771
-0.00189518
-0.00199374
-0.0021342
-0.00230767
-0.00259853
-0.00323002
-0.00439831
-0.00615952
-0.00846066
-0.010787
-0.0116076
-0.0105545
-0.00790357
-0.00486465
-0.00898509
-0.0147022
-0.017754
-0.0187303
-0.0191852
-0.0196903
-0.00195553
-0.00202672
-0.00212456
-0.00221559
-0.00232923
-0.00259526
-0.00310759
-0.00372524
-0.0040105
-0.00255427
0.00401315
0.0162787
0.0293826
0.0285882
0.0189791
0.0114289
0.00892941
0.00850804
0.00771628
0.0069501
-0.00141132
-0.00146337
-0.00152119
-0.00156449
-0.00159012
-0.00169983
-0.00182436
-0.00174118
-0.00090542
0.00259223
0.0129511
0.0313023
0.0479701
0.0426362
0.0313152
0.0254552
0.0245171
0.0249781
0.0239652
0.0230476
-0.000749172
-0.000793096
-0.000834109
-0.000850873
-0.000800661
-0.000860127
-0.000836702
-0.000581562
0.000392883
0.00356702
0.0124862
0.0296593
0.0438955
0.0373192
0.0279989
0.0250297
0.0258724
0.0270453
0.0255623
0.0243936
-1.72454e-06
-3.12064e-05
-3.47427e-05
-7.15618e-05
-0.000225688
-0.000257512
-8.23116e-05
-2.3202e-05
7.15586e-05
0.000431592
0.00183312
0.00573691
0.0109048
0.0130894
0.010614
0.00955806
0.00833843
0.00580564
0.00478865
0.00485565
-0.082081
0.0863982
0.283429
0.455263
0.593029
0.702104
0.792596
0.869436
0.90417
0.880867
0.224695
0.346612
0.477823
0.591425
0.687398
0.767
0.831449
0.877137
0.900014
0.912027
0.44617
0.529865
0.619549
0.698925
0.767255
0.824442
0.869896
0.903078
0.927014
0.944949
0.608613
0.668361
0.730922
0.788574
0.838785
0.881416
0.916409
0.9443
0.967221
0.985494
0.735208
0.778774
0.825144
0.869338
0.908382
0.942468
0.971627
0.995877
1.01635
1.03417
0.840228
0.873373
0.911753
0.947551
0.980397
1.00982
1.03553
1.05712
1.07503
1.09237
0.933215
0.962061
0.996213
1.0285
1.05859
1.08588
1.10971
1.1295
1.14505
1.16212
1.02207
1.05137
1.08549
1.11763
1.14731
1.17397
1.1969
1.21543
1.22883
1.24586
1.11754
1.15081
1.18752
1.22116
1.25126
1.27749
1.29948
1.31679
1.32868
1.34608
1.23263
1.2705
1.30919
1.34347
1.37285
1.39762
1.41802
1.43393
1.44541
1.46348
1.37763
1.4162
1.45237
1.48308
1.50878
1.53089
1.54996
1.5655
1.57794
1.59594
1.55276
1.58438
1.61058
1.63304
1.65303
1.67177
1.68949
1.70598
1.72133
1.7394
1.74139
1.7586
1.77364
1.78988
1.8058
1.82034
1.83354
1.84748
1.86502
1.88518
1.92312
1.93266
1.94421
1.95502
1.96431
1.9739
1.98468
1.99605
2.00742
2.02278
2.13037
2.13403
2.11909
2.10428
2.098
2.10368
2.12217
2.15248
2.18466
2.21131
2.43669
2.30182
2.22519
2.18282
2.1654
2.16936
2.19676
2.25317
2.35579
2.58016
0.734932
0.732802
0.728317
0.719689
0.707459
0.695323
0.685084
0.677173
0.671533
0.66825
0.667858
0.670559
0.675633
0.682832
0.692202
0.70373
0.716373
0.727402
0.73351
0.736562
0.659394
0.66524
0.671573
0.676061
0.678524
0.678191
0.675443
0.671616
0.668083
0.665791
0.665604
0.667762
0.671392
0.675655
0.679443
0.681313
0.680367
0.676877
0.67171
0.665088
0.650986
0.653282
0.656683
0.659673
0.661741
0.663227
0.663968
0.663632
0.662582
0.661665
0.661795
0.663177
0.664955
0.666232
0.66639
0.665482
0.66392
0.661575
0.658305
0.655381
0.645499
0.646585
0.648414
0.650786
0.6528
0.654216
0.65522
0.65595
0.656322
0.656505
0.656944
0.6577
0.658254
0.658285
0.657845
0.656975
0.655489
0.653392
0.651297
0.649912
0.640326
0.640989
0.642093
0.64379
0.645561
0.647178
0.648455
0.649445
0.650292
0.651036
0.651705
0.652195
0.652335
0.652125
0.651524
0.650442
0.648992
0.647432
0.646103
0.645321
0.635389
0.63585
0.636632
0.637921
0.639396
0.640896
0.642339
0.643607
0.644701
0.645701
0.646544
0.647036
0.647116
0.646788
0.646046
0.645021
0.643867
0.642714
0.641785
0.641265
0.630609
0.630954
0.631561
0.63262
0.6339
0.635254
0.636667
0.638078
0.639403
0.640616
0.641638
0.642236
0.642331
0.641987
0.641331
0.640508
0.639619
0.638726
0.638037
0.637656
0.625934
0.626202
0.626691
0.62759
0.628744
0.630018
0.631383
0.63283
0.634314
0.635754
0.636996
0.637749
0.637946
0.637737
0.637272
0.636653
0.635957
0.635281
0.634771
0.63448
0.621286
0.621499
0.621906
0.622694
0.623766
0.624989
0.626339
0.627825
0.629428
0.631088
0.632591
0.633575
0.633983
0.63399
0.633734
0.633317
0.632812
0.632318
0.631943
0.631714
0.616581
0.616753
0.6171
0.617815
0.618839
0.620036
0.621408
0.622967
0.62471
0.6266
0.628414
0.629719
0.630418
0.630683
0.630653
0.630441
0.630127
0.629794
0.62953
0.629349
0.611736
0.611875
0.61218
0.61285
0.613856
0.615075
0.616505
0.618179
0.620112
0.622285
0.624479
0.626186
0.627233
0.627795
0.628018
0.628022
0.627894
0.627711
0.62754
0.627394
0.606669
0.606781
0.607058
0.607708
0.608731
0.610015
0.61155
0.613391
0.615583
0.618117
0.620783
0.622974
0.624428
0.625328
0.625833
0.626067
0.626126
0.62609
0.626
0.625882
0.601293
0.601381
0.601642
0.602297
0.603372
0.604763
0.606456
0.608534
0.611064
0.614066
0.617317
0.620084
0.622015
0.623302
0.62412
0.624616
0.624877
0.624978
0.624957
0.624862
0.59551
0.595577
0.59583
0.596511
0.597677
0.599223
0.601135
0.603523
0.60648
0.610065
0.614034
0.617501
0.620005
0.62175
0.62293
0.623715
0.624198
0.624444
0.62449
0.624413
0.589202
0.589248
0.589501
0.590232
0.591527
0.593282
0.595485
0.598272
0.601769
0.606073
0.610918
0.615237
0.618432
0.620722
0.622322
0.62343
0.624167
0.624568
0.624679
0.624618
0.582232
0.582259
0.582516
0.583318
0.584786
0.586811
0.589389
0.592687
0.596873
0.602076
0.607997
0.613341
0.617352
0.620281
0.622374
0.623863
0.62489
0.625457
0.625635
0.62559
0.57442
0.574432
0.57469
0.575586
0.577282
0.579646
0.582706
0.586657
0.591708
0.598027
0.605261
0.611841
0.616827
0.620513
0.623191
0.625138
0.626492
0.627244
0.627491
0.627457
0.565479
0.565461
0.565776
0.566807
0.568777
0.571576
0.575251
0.580022
0.586154
0.593859
0.6027
0.610758
0.616907
0.621495
0.624873
0.627368
0.629103
0.630062
0.630382
0.630359
0.555127
0.555082
0.555439
0.556654
0.558983
0.562349
0.566806
0.57262
0.580108
0.589511
0.600301
0.610154
0.617687
0.623343
0.627553
0.630688
0.632874
0.634069
0.634468
0.634453
0.542906
0.542833
0.543267
0.544722
0.547518
0.551625
0.557102
0.564268
0.573501
0.585052
0.59821
0.610159
0.619295
0.626197
0.631387
0.635266
0.637969
0.639425
0.639904
0.639893
0.528179
0.528077
0.52863
0.530426
0.533849
0.538947
0.54577
0.554697
0.566136
0.580319
0.596323
0.610772
0.621802
0.630152
0.63649
0.64124
0.644539
0.64628
0.646837
0.646825
0.510038
0.509908
0.510651
0.512938
0.517239
0.52371
0.53238
0.543671
0.557983
0.575456
0.594857
0.612165
0.625334
0.63533
0.642981
0.648737
0.652711
0.654756
0.655382
0.65536
0.487045
0.486897
0.48797
0.491032
0.49667
0.505175
0.516488
0.531011
0.54904
0.57055
0.593925
0.614479
0.630026
0.641869
0.650953
0.657842
0.662536
0.664879
0.665549
0.665505
0.456863
0.456738
0.458418
0.462839
0.470732
0.482411
0.497603
0.516561
0.539353
0.565727
0.593663
0.617815
0.635943
0.649753
0.660418
0.66852
0.673934
0.676525
0.677201
0.677121
0.415357
0.415397
0.418432
0.425715
0.437798
0.454694
0.475656
0.50062
0.529378
0.561459
0.59445
0.62241
0.643217
0.659058
0.671337
0.680679
0.686693
0.689404
0.69003
0.689907
0.354807
0.355995
0.363467
0.377123
0.396906
0.42211
0.451199
0.483807
0.519617
0.558067
0.596436
0.628323
0.651828
0.669669
0.683529
0.693965
0.700423
0.703051
0.703511
0.703347
0.282549
0.28432
0.298651
0.322233
0.352839
0.387872
0.425873
0.466692
0.510139
0.555702
0.600417
0.63727
0.66442
0.685046
0.700965
0.712731
0.719687
0.722345
0.722843
0.722787
0.207864
0.214047
0.235232
0.268967
0.309874
0.35447
0.401361
0.450451
0.501627
0.554446
0.60573
0.64778
0.678709
0.702296
0.720564
0.733751
0.741034
0.743387
0.743706
0.743744
0.146871
0.155323
0.181132
0.221875
0.270756
0.32348
0.378377
0.435198
0.493752
0.553548
0.611108
0.658044
0.692481
0.718699
0.738861
0.75319
0.760598
0.763111
0.76382
0.763938
0.0972111
0.106254
0.135609
0.181568
0.236535
0.29581
0.357456
0.421097
0.486371
0.552673
0.616132
0.667625
0.705274
0.733846
0.755774
0.771246
0.779496
0.782599
0.783448
0.783579
0.0554897
0.064817
0.0966258
0.146573
0.206526
0.271238
0.338598
0.408188
0.479486
0.551753
0.620697
0.676415
0.716994
0.747722
0.771308
0.787868
0.796963
0.800488
0.801487
0.801618
0.0193579
0.0288079
0.0624726
0.115619
0.179685
0.249026
0.321367
0.396216
0.472949
0.550689
0.624717
0.684333
0.727594
0.760257
0.78519
0.802632
0.812347
0.816258
0.817368
0.817511
-0.0128067
-0.00330445
0.0317868
0.0876419
0.155153
0.228471
0.305209
0.384779
0.466471
0.549265
0.628031
0.691277
0.736981
0.771308
0.797282
0.815342
0.825635
0.829859
0.830994
0.831132
-0.0422348
-0.0326743
0.00357944
0.0617615
0.132243
0.209039
0.289672
0.37351
0.459754
0.547272
0.630521
0.69722
0.745201
0.780975
0.807727
0.82618
0.836729
0.841218
0.842461
0.842599
-0.0697525
-0.0601331
-0.0228191
0.0373302
0.11045
0.190315
0.274428
0.362137
0.452587
0.544555
0.632122
0.702196
0.752389
0.78948
0.816859
0.835571
0.846318
0.850983
0.852267
0.852382
-0.0959124
-0.0861963
-0.0479023
0.0139237
0.0894143
0.172002
0.259246
0.350479
0.444825
0.541013
0.632809
0.70627
0.758666
0.797009
0.824961
0.843946
0.854798
0.859517
0.860792
0.860873
-0.121172
-0.111263
-0.0721287
-0.00868918
0.0688825
0.153907
0.243976
0.338423
0.436384
0.536594
0.632572
0.70949
0.764146
0.803761
0.832292
0.851512
0.862459
0.867159
0.868398
0.868439
-0.145753
-0.135606
-0.0956955
-0.0306953
0.0487114
0.135916
0.22853
0.325907
0.427216
0.531265
0.631395
0.711877
0.768923
0.809902
0.839081
0.858546
0.869538
0.87418
0.875347
0.875379
-0.169742
-0.159369
-0.11861
-0.0522524
0.0288228
0.117985
0.212881
0.312912
0.417309
0.524998
0.629244
0.713435
0.773058
0.815568
0.845495
0.865219
0.876195
0.880693
0.881745
0.881727
-0.193263
-0.182573
-0.141057
-0.0734075
0.00918241
0.100096
0.197033
0.299454
0.406679
0.517795
0.626077
0.714117
0.77658
0.820862
0.851651
0.87159
0.882434
0.886706
0.887589
0.887512
-0.21627
-0.205287
-0.16301
-0.0941633
-0.0101977
0.0822763
0.181033
0.285583
0.395366
0.509658
0.621849
0.713851
0.779471
0.825863
0.85769
0.877782
0.888301
0.892196
0.892887
0.892762
-0.238796
-0.227496
-0.184416
-0.114487
-0.0292805
0.0645735
0.164932
0.271368
0.38343
0.500616
0.616521
0.712553
0.781656
0.830609
0.86379
0.883999
0.893924
0.897221
0.897666
0.897498
-0.260652
-0.249111
-0.205257
-0.134334
-0.0480123
0.0470652
0.148803
0.256886
0.370952
0.490728
0.610073
0.710127
0.783018
0.835067
0.870139
0.890603
0.899575
0.901859
0.901924
0.901724
-0.28197
-0.270081
-0.225501
-0.153668
-0.0663545
0.0297939
0.132742
0.242224
0.35802
0.480075
0.602514
0.706468
0.783383
0.839084
0.876829
0.898119
0.905921
0.906478
0.905715
0.905452
-0.302581
-0.290375
-0.245112
-0.172437
-0.0842228
0.0128471
0.11683
0.227501
0.344746
0.468722
0.593888
0.701485
0.782547
0.842363
0.883677
0.907036
0.914292
0.912474
0.909627
0.908472
-0.322538
-0.310033
-0.264032
-0.190586
-0.101578
-0.00370492
0.101154
0.212798
0.331241
0.456807
0.58427
0.695096
0.780292
0.844476
0.890041
0.917148
0.926118
0.923191
0.916347
0.907331
-0.341758
-0.32901
-0.282357
-0.208269
-0.118629
-0.0201453
0.0853698
0.197706
0.317043
0.44381
0.573108
0.686699
0.776055
0.844907
0.894983
0.927315
0.941368
0.939971
0.929814
0.923085
-0.360186
-0.347222
-0.30008
-0.225447
-0.135372
-0.0364759
0.0694962
0.182207
0.302111
0.429619
0.560217