/*--------------------------------*- C++ -*----------------------------------*\
  =========                 |
  \\      /  F ield         | OpenFOAM: The Open Source CFD Toolbox
   \\    /   O peration     | Website:  https://openfoam.org
    \\  /    A nd           | Version:  9
     \\/     M anipulation  |
\*---------------------------------------------------------------------------*/
FoamFile
{
    format      ascii;
    class       volScalarField;
    location    "27";
    object      p;
}
// * * * * * * * * * * * * * * * * * * * * * * * * * * * * * * * * * * * * * //

dimensions      [0 2 -2 0 0 0 0];

internalField   nonuniform List<scalar> 
8800
(
0.612599
0.56481
0.526117
0.497116
0.476242
0.461393
0.450769
0.44325
0.438374
0.436229
0.43738
0.44146
0.448011
0.457254
0.469982
0.487679
0.512431
0.546353
0.588887
0.647586
0.443859
0.451537
0.459003
0.462308
0.460798
0.455708
0.449205
0.4431
0.438327
0.435404
0.435014
0.437395
0.441777
0.447635
0.454338
0.460569
0.464175
0.463419
0.457974
0.44927
0.422281
0.428442
0.432568
0.435507
0.437548
0.438137
0.437005
0.434859
0.432778
0.431767
0.432598
0.434853
0.437545
0.439639
0.440178
0.438927
0.436543
0.433119
0.428546
0.42478
0.416509
0.41916
0.421912
0.424313
0.425943
0.42709
0.427805
0.427879
0.42751
0.427343
0.42795
0.428979
0.429692
0.429651
0.428956
0.427796
0.425926
0.423312
0.420884
0.419379
0.411182
0.412608
0.414394
0.416432
0.418217
0.419548
0.42051
0.421256
0.421788
0.422224
0.422703
0.423026
0.422975
0.42256
0.421753
0.420412
0.418639
0.416728
0.415388
0.414558
0.406178
0.407099
0.408355
0.409939
0.411585
0.413113
0.414382
0.415401
0.416272
0.417013
0.417498
0.417617
0.417386
0.416776
0.415744
0.414413
0.412977
0.411632
0.41077
0.410223
0.401377
0.402045
0.403031
0.404367
0.405804
0.40728
0.408718
0.410005
0.411108
0.412038
0.412613
0.412718
0.412382
0.411643
0.410634
0.409511
0.408348
0.407311
0.406681
0.406284
0.396743
0.397255
0.398074
0.399261
0.400591
0.401998
0.403457
0.404907
0.406239
0.407367
0.408077
0.408217
0.407861
0.407174
0.406307
0.405345
0.404366
0.403531
0.403044
0.402742
0.392232
0.392631
0.393329
0.394411
0.395683
0.39705
0.398499
0.400008
0.401506
0.402863
0.403744
0.403995
0.403773
0.403248
0.402541
0.401727
0.400897
0.400219
0.39984
0.399604
0.387792
0.388106
0.388722
0.389753
0.391003
0.392365
0.39384
0.395415
0.397055
0.398641
0.399761
0.400227
0.400211
0.399869
0.39932
0.398645
0.397926
0.397362
0.397065
0.39688
0.383401
0.383646
0.384201
0.3852
0.386446
0.387844
0.389404
0.391097
0.39289
0.394707
0.396154
0.396944
0.397178
0.397014
0.396608
0.396069
0.395466
0.395004
0.394776
0.394632
0.379013
0.3792
0.379715
0.380713
0.381988
0.383441
0.385084
0.386957
0.389042
0.391223
0.393044
0.394131
0.394611
0.394678
0.394466
0.394059
0.393565
0.393187
0.393018
0.392908
0.374613
0.374739
0.37521
0.376196
0.377493
0.378993
0.380716
0.38271
0.385011
0.387587
0.3899
0.391481
0.392393
0.392807
0.392843
0.392645
0.392292
0.39202
0.391915
0.391839
0.370247
0.370324
0.370755
0.371724
0.373058
0.374649
0.376544
0.378831
0.381543
0.384651
0.387558
0.389654
0.390956
0.391682
0.392022
0.392028
0.391864
0.391722
0.391678
0.391627
0.365768
0.36582
0.366193
0.367084
0.368378
0.370008
0.372042
0.374586
0.37774
0.381501
0.385159
0.387923
0.389832
0.391054
0.391762
0.392148
0.392294
0.392342
0.392358
0.392313
0.360728
0.360774
0.361128
0.361981
0.363308
0.365067
0.367363
0.370331
0.374087
0.378672
0.383249
0.386827
0.389349
0.391096
0.392309
0.393068
0.393501
0.393724
0.393788
0.393741
0.354832
0.354874
0.355236
0.356126
0.35758
0.359575
0.362237
0.365756
0.370309
0.375948
0.381648
0.386191
0.389504
0.391869
0.393536
0.394672
0.395407
0.395789
0.395889
0.395834
0.34776
0.347802
0.348234
0.349228
0.350898
0.353243
0.35642
0.36068
0.366238
0.373191
0.380293
0.386005
0.39022
0.393279
0.395484
0.397036
0.398066
0.398588
0.398716
0.39865
0.339164
0.339212
0.339736
0.340956
0.34298
0.345844
0.349762
0.355047
0.361952
0.370572
0.379368
0.38646
0.391706
0.395536
0.398323
0.400311
0.401618
0.402249
0.402408
0.402334
0.328676
0.328727
0.329392
0.330926
0.33346
0.337048
0.341976
0.348601
0.357226
0.367934
0.378799
0.387508
0.393978
0.398735
0.402191
0.404672
0.40627
0.407028
0.407224
0.407139
0.315807
0.315859
0.316696
0.318677
0.321952
0.326567
0.332867
0.341276
0.352107
0.365397
0.378747
0.389419
0.397324
0.403089
0.407392
0.410391
0.412306
0.413206
0.413445
0.413346
0.299932
0.299982
0.301055
0.303653
0.307962
0.313993
0.322157
0.332908
0.346531
0.362985
0.379305
0.39226
0.401847
0.408886
0.414053
0.417678
0.419958
0.421052
0.421342
0.421224
0.280072
0.280143
0.281581
0.285042
0.290791
0.298814
0.309514
0.323354
0.340521
0.360818
0.38062
0.396218
0.407755
0.416238
0.422432
0.426781
0.429504
0.430819
0.431156
0.431011
0.254513
0.254635
0.256694
0.261564
0.269477
0.280367
0.294631
0.312572
0.334186
0.35907
0.382878
0.401452
0.415168
0.425279
0.432669
0.43787
0.441148
0.442711
0.443085
0.442905
0.220273
0.220547
0.223892
0.231357
0.242874
0.258127
0.277394
0.3007
0.327775
0.358004
0.386295
0.408125
0.424214
0.43611
0.444859
0.451073
0.455001
0.456831
0.457226
0.456997
0.17157
0.172771
0.179528
0.192343
0.210101
0.232012
0.258132
0.288199
0.321727
0.357946
0.391064
0.416323
0.434899
0.448695
0.458951
0.466351
0.471041
0.473157
0.473547
0.473257
0.0992118
0.107045
0.122657
0.145353
0.172515
0.203335
0.237837
0.275706
0.316434
0.359251
0.397686
0.426785
0.448228
0.464305
0.476486
0.485493
0.491344
0.494073
0.49464
0.494439
0.0215573
0.0395232
0.0647547
0.0977695
0.134599
0.174516
0.217526
0.263439
0.31184
0.362088
0.406968
0.441045
0.466357
0.485574
0.500441
0.51184
0.51927
0.522844
0.523908
0.5239
-0.0421264
-0.0212644
0.0117957
0.0533036
0.0987004
0.147098
0.198279
0.252013
0.307873
0.365219
0.416118
0.454694
0.483417
0.505345
0.522331
0.53522
0.544123
0.548573
0.549369
0.549469
-0.0940409
-0.0713363
-0.0331362
0.0144032
0.0665206
0.121984
0.180326
0.24115
0.303917
0.367887
0.424273
0.466785
0.498322
0.522298
0.540859
0.55497
0.564948
0.569635
0.57059
0.570789
-0.137085
-0.113353
-0.0715967
-0.0192916
0.0381828
0.0994296
0.163857
0.230919
0.299891
0.369866
0.431178
0.477077
0.510894
0.536486
0.556203
0.571189
0.581645
0.586806
0.588113
0.588341
-0.173886
-0.149547
-0.105102
-0.0490696
0.0128785
0.079027
0.148705
0.221245
0.29578
0.37118
0.436907
0.485753
0.521453
0.548257
0.568755
0.584295
0.594915
0.600439
0.601967
0.602202
-0.206367
-0.181636
-0.135107
-0.0759597
-0.0102618
0.0601288
0.134438
0.211884
0.291466
0.371855
0.441637
0.493134
0.530437
0.55816
0.579136
0.594903
0.605646
0.611294
0.612919
0.613102
-0.235953
-0.210868
-0.162633
-0.100813
-0.031884
0.0422164
0.120647
0.20254
0.286781
0.371858
0.445502
0.499503
0.538284
0.566796
0.588133
0.603999
0.614775
0.620466
0.622199
0.622359
-0.26351
-0.238105
-0.188367
-0.124284
-0.0525034
0.0248848
0.107013
0.192971
0.281564
0.371117
0.448547
0.505059
0.545309
0.574629
0.596358
0.612367
0.623156
0.628807
0.630623
0.630793
-0.289753
-0.263969
-0.212857
-0.146786
-0.072472
0.00784625
0.0933135
0.183001
0.275673
0.369552
0.45077
0.509882
0.551742
0.58199
0.604192
0.620388
0.631217
0.636767
0.638562
0.638757
-0.314967
-0.288776
-0.236564
-0.168608
-0.0920227
-0.00908098
0.0794022
0.172514
0.269015
0.367098
0.452174
0.51409
0.557768
0.589101
0.611907
0.62839
0.639295
0.644787
0.646458
0.64659
-0.3395
-0.312772
-0.259576
-0.189924
-0.111326
-0.0260277
0.0651905
0.161441
0.261531
0.363709
0.452764
0.517714
0.56343
0.596061
0.619633
0.636515
0.647537
0.652969
0.65448
0.654526
-0.363417
-0.336292
-0.282019
-0.210857
-0.130454
-0.0430413
0.0506402
0.149757
0.253199
0.35935
0.452449
0.520669
0.568737
0.602904
0.627409
0.644784
0.65593
0.661265
0.662642
0.662572
-0.386805
-0.35916
-0.303996
-0.231452
-0.149425
-0.0601266
0.0357555
0.137465
0.244005
0.353939
0.451109
0.52288
0.573635
0.609625
0.635239
0.65318
0.664428
0.669599
0.670799
0.670633
-0.40975
-0.381543
-0.325487
-0.251705
-0.16824
-0.0772628
0.0205752
0.1246
0.233946
0.347436
0.448672
0.524222
0.57803
0.61619
0.643125
0.661681
0.67298
0.677878
0.678861
0.67862
-0.43225
-0.403427
-0.3465
-0.271591
-0.186843
-0.0943979
0.00515865
0.111214
0.223069
0.339841
0.445045
0.524532
0.581772
0.622549
0.651101
0.670299
0.681484
0.685982
0.686711
0.686404
-0.45413
-0.424735
-0.366988
-0.29107
-0.205185
-0.111455
-0.0104223
0.0974013
0.211455
0.331188
0.440141
0.523647
0.584654
0.628592
0.659243
0.679172
0.689946
0.693762
0.694169
0.693813
-0.475358
-0.445419
-0.386913
-0.31008
-0.223202
-0.128368
-0.0260651
0.083253
0.199194
0.32151
0.433923
0.521395
0.586423
0.634109
0.667627
0.68867
0.69864
0.701159
0.701058
0.700696
-0.495993
-0.465439
-0.406236
-0.328581
-0.240825
-0.145047
-0.0416763
0.0688793
0.186386
0.310895
0.426369
0.517636
0.58677
0.63871
0.676146
0.699387
0.708545
0.708678
0.707302
0.70707
-0.515864
-0.484772
-0.424899
-0.346502
-0.257992
-0.161408
-0.0571596
0.0543948
0.17316
0.299461
0.41751
0.512258
0.585389
0.64178
0.684219
0.711631
0.721625
0.71897
0.714399
0.713188
-0.535055
-0.50341
-0.442922
-0.363871
-0.274735
-0.177498
-0.0725737
0.0397385
0.159448
0.287138
0.407222
0.505007
0.58196
0.642514
0.69056
0.724516
0.739259
0.738055
0.727524
0.709433
-0.553497
-0.521349
-0.460428
-0.380876
-0.291345
-0.193653
-0.0883359
0.0244211
0.144697
0.273256
0.394814
0.49501
0.575775
0.639686
0.692353
0.733671
0.753989
0.746462
0.732136
0.712038
-0.571027
-0.538734
-0.477235
-0.397273
-0.307529
-0.209523
-0.104217
0.00877651
0.129233
0.258126
0.380466
0.481992
0.566359
0.6325
0.684398
0.72655
0.748562
0.732964
0.661387
0.626597
-0.587004
-0.556693
-0.493003
-0.412475
-0.322576
-0.22463
-0.119927
-0.00697243
0.113277
0.241893
0.36419
0.465824
0.552744
0.621296
0.663224
0.695408
0.701452
0.652696
0.579524
0.533588
-0.642491
-0.572304
-0.507433
-0.427727
-0.337911
-0.240355
-0.135527
-0.0230893
0.0964921
0.224159
0.34549
0.446169
0.531925
0.607589
0.610544
0.626805
0.594446
0.529982
0.451316
0.40686
-0.603687
-0.587906
-0.528366
-0.449397
-0.360135
-0.262933
-0.159167
-0.0476774
0.0704719
0.196001
0.314268
0.411864
0.489019
0.563348
0.563014
0.456133
0.349927
0.276909
0.201533
0.238389
-0.634307
-0.605377
-0.545154
-0.466515
-0.377431
-0.280593
-0.176719
-0.0660308
0.0508107
0.174168
0.289119
0.382403
0.452026
0.491437
0.446155
0.298677
0.165735
0.0715056
-0.0319398
0.0252774
-0.657871
-0.625914
-0.564623
-0.485652
-0.396586
-0.29992
-0.196264
-0.0865663
0.0286625
0.14933
0.260262
0.347858
0.407738
0.416638
0.310432
0.127567
-0.0352801
-0.161512
-0.301012
-0.260255
-0.680791
-0.647313
-0.584922
-0.50515
-0.415942
-0.319438
-0.216382
-0.107789
0.00565602
0.12333
0.229514
0.310784
0.356323
0.330812
0.168702
-0.0422911
-0.249334
-0.436807
-0.642454
-0.645264
-0.702904
-0.66916
-0.605939
-0.525474
-0.436092
-0.339805
-0.237451
-0.130061
-0.0186217
0.0957421
0.196644
0.270889
0.299307
0.238907
0.0332466
-0.195279
-0.434883
-0.650892
-0.92133
-1.25709
-0.725224
-0.691596
-0.627925
-0.547005
-0.457439
-0.361319
-0.259592
-0.153418
-0.0440595
0.0668169
0.162279
0.228681
0.239775
0.128143
-0.0847324
-0.313707
-0.542789
-0.738568
-0.813925
-0.922755
-0.748558
-0.715038
-0.651179
-0.57006
-0.480435
-0.384568
-0.283552
-0.178751
-0.0717653
0.0351686
0.124777
0.181768
0.168343
0.0156061
-0.188874
-0.398426
-0.5806
-0.687144
-0.711365
-0.731605
-0.773236
-0.739804
-0.675844
-0.594695
-0.505176
-0.409713
-0.309628
-0.206483
-0.102267
0.000119022
0.0834121
0.12894
0.0924975
-0.0877889
-0.28307
-0.466862
-0.608177
-0.656297
-0.67148
-0.673905
-0.799459
-0.765983
-0.70196
-0.620865
-0.531575
-0.436716
-0.337785
-0.236604
-0.135576
-0.0383195
0.0380396
0.0702807
0.0156789
-0.184951
-0.370562
-0.535191
-0.634194
-0.647131
-0.649942
-0.650167
-0.827203
-0.793641
-0.729524
-0.648521
-0.559594
-0.465505
-0.367959
-0.269052
-0.171617
-0.0800045
-0.0114026
0.00858921
-0.076879
-0.274649
-0.452239
-0.590316
-0.630851
-0.638386
-0.639353
-0.638635
-0.856157
-0.822403
-0.758407
-0.677531
-0.589089
-0.495955
-0.400034
-0.303703
-0.210277
-0.124739
-0.0644372
-0.0571433
-0.175822
-0.359909
-0.521784
-0.624076
-0.628542
-0.630695
-0.631934
-0.63161
-0.885743
-0.85197
-0.788268
-0.707631
-0.61981
-0.527821
-0.433755
-0.340303
-0.251244
-0.172261
-0.119896
-0.132914
-0.265027
-0.437059
-0.584556
-0.619634
-0.633673
-0.629742
-0.62683
-0.625927
-0.91554
-0.881983
-0.818518
-0.738384
-0.651344
-0.56069
-0.468717
-0.378427
-0.294022
-0.221943
-0.177265
-0.20672
-0.353229
-0.502447
-0.630446
-0.670013
-0.645582
-0.628797
-0.621712
-0.619022
-0.944638
-0.911566
-0.848561
-0.76913
-0.683088
-0.593977
-0.504318
-0.417422
-0.337917
-0.272759
-0.237283
-0.280375
-0.444455
-0.553272
-0.64271
-0.656067
-0.644486
-0.631157
-0.623744
-0.621023
-0.971766
-0.939388
-0.877552
-0.79903
-0.714207
-0.626868
-0.539722
-0.456352
-0.38195
-0.323782
-0.296954
-0.351453
-0.535682
-0.634882
-0.575508
-0.628723
-0.679293
-0.701415
-0.700753
-0.696878
-0.995548
-0.964309
-0.904213
-0.826962
-0.743684
-0.658316
-0.573835
-0.494023
-0.424682
-0.374048
-0.352492
-0.428458
-0.630542
-0.820609
-0.854329
-0.857786
-0.874952
-0.893494
-0.886819
-0.876934
-1.01426
-0.984845
-0.926901
-0.851605
-0.77025
-0.687064
-0.605266
-0.528974
-0.464257
-0.421108
-0.404546
-0.507892
-0.735003
-1.03188
-1.40294
-1.13795
-1.04636
-1.03994
-1.03992
-1.04041
-1.02618
-0.999314
-0.944273
-0.87141
-0.792371
-0.711614
-0.632454
-0.559367
-0.49857
-0.461551
-0.457253
-0.57805
-0.769674
-0.755042
-0.513588
-0.795423
-1.13388
-1.17642
-1.15663
-1.15131
-1.02931
-1.00605
-0.954742
-0.884917
-0.808539
-0.730379
-0.653694
-0.58287
-0.525251
-0.492647
-0.503212
-0.635394
-0.789545
-0.691942
-0.587352
-0.918565
-1.17326
-1.17848
-1.12975
-1.15775
-1.02254
-1.00332
-0.956752
-0.890889
-0.817511
-0.741906
-0.667172
-0.597467
-0.540595
-0.510429
-0.531259
-0.716875
-1.18823
-1.95441
-2.66899
-3.11974
-2.9156
-2.43116
-1.99379
-1.86412
-1.00427
-0.988963
-0.94919
-0.888507
-0.818519
-0.745242
-0.671559
-0.601452
-0.541338
-0.505008
-0.522178
-0.740327
-1.37423
-2.275
-2.98118
-3.32429
-3.23555
-2.93317
-2.55875
-2.34345
-0.975692
-0.964943
-0.932313
-0.878009
-0.811626
-0.740322
-0.666566
-0.593507
-0.526174
-0.471836
-0.462785
-0.537626
-0.806345
-1.06284
-1.27164
-1.22326
-0.993329
-0.72806
-0.507132
-0.391649
-0.940226
-0.933678
-0.908904
-0.861262
-0.798427
-0.728346
-0.653441
-0.575122
-0.495929
-0.418134
-0.339488
-0.22182
-0.0483602
0.319152
0.778091
1.23696
1.6021
1.84131
1.96165
2.0001
-0.902511
-0.89886
-0.88271
-0.841577
-0.781796
-0.71227
-0.635154
-0.551614
-0.459093
-0.356374
-0.22948
-0.0903049
0.241534
0.829243
1.49138
2.08611
2.52587
2.77914
2.89009
2.92192
-0.867381
-0.865198
-0.855914
-0.822748
-0.766154
-0.695726
-0.616547
-0.528509
-0.431802
-0.318218
-0.192483
-0.050391
0.148319
0.623883
1.18859
1.6811
2.03503
2.23805
2.32914
2.35625
-0.833364
-0.832181
-0.829098
-0.805795
-0.75252
-0.680701
-0.600186
-0.512643
-0.417705
-0.308724
-0.195761
-0.0772992
0.050364
0.344863
0.761225
1.11062
1.37129
1.52871
1.60594
1.62941
-0.811889
-0.812035
-0.811971
-0.792273
-0.737379
-0.663473
-0.583119
-0.49917
-0.409803
-0.311662
-0.214926
-0.125198
-0.0409578
0.125573
0.40254
0.649888
0.835036
0.945082
0.99411
1.00651
-0.782571
-0.785694
-0.78731
-0.767137
-0.709715
-0.635862
-0.559264
-0.48244
-0.402725
-0.318483
-0.240423
-0.178219
-0.118325
-0.0189523
0.162256
0.325678
0.444669
0.513563
0.544493
0.551789
-0.703575
-0.707591
-0.708936
-0.691609
-0.645836
-0.585848
-0.522931
-0.459161
-0.392845
-0.323565
-0.263584
-0.223919
-0.190094
-0.124377
-0.00140943
0.104443
0.179884
0.221206
0.238603
0.240691
-0.581302
-0.583226
-0.583691
-0.574743
-0.550826
-0.516566
-0.475869
-0.430163
-0.379595
-0.325145
-0.281167
-0.26054
-0.250432
-0.206922
-0.118456
-0.0428864
0.00614941
0.0321197
0.0423804
0.0424742
-0.469231
-0.46963
-0.470207
-0.469048
-0.462971
-0.450089
-0.429384
-0.40046
-0.364059
-0.321883
-0.287677
-0.274828
-0.279005
-0.244995
-0.183014
-0.131584
-0.0986332
-0.0817417
-0.0753361
-0.0756549
-0.398194
-0.398249
-0.399409
-0.402015
-0.403848
-0.401549
-0.39242
-0.374865
-0.34863
-0.314691
-0.283692
-0.266885
-0.262513
-0.231297
-0.187574
-0.158866
-0.142287
-0.134268
-0.131496
-0.13214
-0.363694
-0.36385
-0.365107
-0.368104
-0.371202
-0.371894
-0.36764
-0.356217
-0.335621
-0.305381
-0.272278
-0.243999
-0.220168
-0.195998
-0.170662
-0.156939
-0.14857
-0.143389
-0.14136
-0.142458
-0.351471
-0.351577
-0.352416
-0.354646
-0.35699
-0.357597
-0.354485
-0.344994
-0.326721
-0.298362
-0.262466
-0.224973
-0.183605
-0.157767
-0.153936
-0.149184
-0.142728
-0.136484
-0.133413
-0.134809
-0.353529
-0.353346
-0.353445
-0.354472
-0.355556
-0.355109
-0.351376
-0.341835
-0.323785
-0.295102
-0.259121
-0.222516
-0.18109
-0.159605
-0.156317
-0.147408
-0.136826
-0.128809
-0.125116
-0.126916
-0.368417
-0.367909
-0.36731
-0.367134
-0.366671
-0.364533
-0.359077
-0.348108
-0.328011
-0.29796
-0.264148
-0.237167
-0.213602
-0.199197
-0.188748
-0.169433
-0.14805
-0.13297
-0.127304
-0.130516
-0.396883
-0.396055
-0.394716
-0.393599
-0.391677
-0.387637
-0.380048
-0.366747
-0.343548
-0.309671
-0.275421
-0.257481
-0.254857
-0.260442
-0.23681
-0.206627
-0.185844
-0.17522
-0.171673
-0.171915
-0.438856
-0.437877
-0.436426
-0.434594
-0.431682
-0.426559
-0.417865
-0.403007
-0.376862
-0.337113
-0.294045
-0.269129
-0.28288
-0.290172
-0.259387
-0.224344
-0.200262
-0.191616
-0.189222
-0.189612
-0.495531
-0.494417
-0.492895
-0.490983
-0.488312
-0.484318
-0.477907
-0.466192
-0.44348
-0.400899
-0.337651
-0.282274
-0.27754
-0.282124
-0.251316
-0.216551
-0.190846
-0.176292
-0.176474
-0.177097
-0.56602
-0.565055
-0.564079
-0.563266
-0.563093
-0.564257
-0.567178
-0.570527
-0.56935
-0.541105
-0.450296
-0.345987
-0.308108
-0.297719
-0.255727
-0.203007
-0.164166
-0.149525
-0.149926
-0.149473
-0.646135
-0.645807
-0.646303
-0.648345
-0.653979
-0.666285
-0.689497
-0.72831
-0.781315
-0.798261
-0.671842
-0.497513
-0.410253
-0.365308
-0.283874
-0.199266
-0.129191
-0.107226
-0.114741
-0.116396
-0.725253
-0.726109
-0.729047
-0.735834
-0.750805
-0.780652
-0.83647
-0.935362
-1.083
-1.18006
-1.02119
-0.746249
-0.586967
-0.491298
-0.358935
-0.232294
-0.154424
-0.133965
-0.13938
-0.143611
-0.785797
-0.788163
-0.794042
-0.806625
-0.832777
-0.883454
-0.978846
-1.15391
-1.42498
-1.63085
-1.42968
-1.04926
-0.82021
-0.663946
-0.492854
-0.353513
-0.286972
-0.283535
-0.286436
-0.290407
-0.80703
-0.810816
-0.819165
-0.836652
-0.872314
-0.940657
-1.06748
-1.30627
-1.67948
-1.97137
-1.75904
-1.31612
-1.03649
-0.85161
-0.652633
-0.545119
-0.5098
-0.503513
-0.502594
-0.504799
-0.77344
-0.777583
-0.786667
-0.805948
-0.8452
-0.920014
-1.05946
-1.32144
-1.72741
-2.05734
-1.87345
-1.44837
-1.19979
-1.01571
-0.858023
-0.754038
-0.734921
-0.732166
-0.731591
-0.733735
-0.682249
-0.685935
-0.693986
-0.711151
-0.746476
-0.814316
-0.943284
-1.1829
-1.53817
-1.80714
-1.67579
-1.38214
-1.25242
-1.17067
-1.11718
-1.02745
-0.987161
-0.969796
-0.962152
-0.961656
-0.547877
-0.55032
-0.555837
-0.568322
-0.594846
-0.646505
-0.745244
-0.929523
-1.19643
-1.36391
-1.28231
-1.17436
-1.14738
-1.3163
-1.42411
-1.30035
-1.20265
-1.15254
-1.12824
-1.12032
-0.393892
-0.395051
-0.397783
-0.404869
-0.421059
-0.453591
-0.516766
-0.63776
-0.826352
-0.950132
-0.916669
-0.878922
-0.947031
-1.1686
-1.37192
-1.26589
-1.16281
-1.10646
-1.07826
-1.06824
-0.245247
-0.24526
-0.245866
-0.248607
-0.256101
-0.272093
-0.304165
-0.368417
-0.484838
-0.588583
-0.595636
-0.572236
-0.575505
-0.719076
-0.881359
-0.863115
-0.819979
-0.795084
-0.782456
-0.776527
-0.118606
-0.118073
-0.117903
-0.118533
-0.120703
-0.125733
-0.136401
-0.158528
-0.204213
-0.271012
-0.256066
-0.209069
-0.218331
-0.30749
-0.394797
-0.409042
-0.404967
-0.402502
-0.402172
-0.401455
-0.0193701
-0.0191705
-0.018117
-0.0169246
-0.0162525
-0.0162607
-0.0166452
-0.0174173
-0.018695
-0.0170099
-0.0438966
-0.0618838
-0.0511984
-0.0428238
-0.0587643
-0.0602772
-0.0627696
-0.0656044
-0.0665447
-0.0645615
-0.391361
-0.201036
0.0203634
0.20793
0.359232
0.480207
0.581462
0.666924
0.70511
0.682369
-0.0451644
0.0899987
0.233679
0.357991
0.463322
0.551113
0.622279
0.672809
0.698591
0.710307
0.198887
0.290679
0.38798
0.474342
0.54885
0.611271
0.66085
0.697037
0.722861
0.74044
0.374713
0.438665
0.506801
0.569199
0.623389
0.669332
0.706928
0.73674
0.760801
0.778845
0.509642
0.556284
0.605791
0.652981
0.694581
0.73077
0.761596
0.787075
0.808251
0.825939
0.619785
0.654809
0.695219
0.732954
0.767439
0.798206
0.824974
0.847347
0.865724
0.883003
0.715951
0.745917
0.781488
0.814954
0.846066
0.87421
0.898729
0.919017
0.934889
0.951949
0.806824
0.836826
0.871814
0.904684
0.935014
0.962225
0.985592
1.00445
1.01808
1.03513
0.903579
0.937186
0.974455
1.00857
1.03909
1.06567
1.08795
1.10547
1.11753
1.13495
1.01956
1.05744
1.0965
1.13114
1.16077
1.18577
1.20634
1.22239
1.23398
1.25207
1.16514
1.20389
1.24005
1.27091
1.29676
1.319
1.33818
1.3538
1.36631
1.38433
1.34021
1.37215
1.39845
1.42096
1.44103
1.45984
1.47762
1.49416
1.50956
1.52764
1.52901
1.54633
1.56151
1.57782
1.59378
1.60836
1.6216
1.63557
1.65314
1.67331
1.71107
1.7205
1.73207
1.74291
1.75223
1.76185
1.77269
1.78409
1.79547
1.81084
1.9182
1.9219
1.90698
1.89218
1.88595
1.89166
1.91015
1.94048
1.97268
1.99934
2.22454
2.08968
2.01307
1.97077
1.95337
1.95733
1.98476
2.04117
2.1438
2.36817
0.503196
0.501065
0.496579
0.487949
0.475718
0.463577
0.45333
0.445404
0.439733
0.436398
0.435927
0.438535
0.443527
0.450662
0.459982
0.471472
0.484085
0.495094
0.501194
0.504238
0.427661
0.433506
0.439844
0.444332
0.446794
0.446458
0.443702
0.439861
0.436297
0.433949
0.433677
0.435739
0.439282
0.443473
0.447206
0.449033
0.448054
0.444539
0.439349
0.432717
0.419268
0.421564
0.424966
0.42796
0.43003
0.431516
0.43225
0.431899
0.430813
0.429834
0.429872
0.431149
0.432833
0.434027
0.434117
0.433157
0.431552
0.429172
0.425879
0.422947
0.413796
0.414882
0.416717
0.4191
0.421125
0.422547
0.423549
0.424261
0.424597
0.424714
0.42505
0.425683
0.426123
0.426056
0.425534
0.424593
0.423049
0.420902
0.41877
0.417373
0.408653
0.409315
0.410428
0.412143
0.413933
0.415566
0.416848
0.417825
0.418632
0.419302
0.419853
0.420195
0.420199
0.419868
0.419159
0.417982
0.416452
0.414824
0.413448
0.412654
0.403752
0.404208
0.405005
0.406329
0.407842
0.409376
0.410842
0.412112
0.413176
0.414097
0.414801
0.415115
0.41502
0.414527
0.413636
0.412478
0.411208
0.409955
0.408963
0.408433
0.399044
0.399383
0.400008
0.401116
0.402454
0.403862
0.405318
0.406751
0.408055
0.409179
0.410034
0.410423
0.410296
0.409731
0.408873
0.407874
0.406829
0.405803
0.405037
0.404646
0.394477
0.394734
0.395243
0.396209
0.397442
0.398788
0.400207
0.401684
0.403161
0.404519
0.405569
0.40605
0.405956
0.405473
0.40476
0.403917
0.403019
0.402171
0.401564
0.401266
0.390007
0.390204
0.390629
0.391502
0.392682
0.393998
0.395405
0.396902
0.398459
0.399994
0.401267
0.401941
0.402038
0.401743
0.401199
0.400505
0.399736
0.399021
0.398536
0.398307
0.385593
0.385741
0.386103
0.386915
0.38807
0.389381
0.390823
0.392389
0.394066
0.395798
0.397335
0.39828
0.398616
0.398527
0.398146
0.397592
0.396954
0.396351
0.395964
0.395789
0.38121
0.381317
0.381632
0.38241
0.38357
0.384916
0.386432
0.388134
0.389998
0.391966
0.393827
0.395136
0.39576
0.395875
0.39566
0.395244
0.394723
0.394218
0.393912
0.393781
0.376808
0.376876
0.377148
0.377903
0.379073
0.380456
0.382014
0.383805
0.385874
0.388189
0.390474
0.392171
0.393133
0.393578
0.393645
0.393434
0.393058
0.392658
0.392433
0.392346
0.372428
0.37246
0.372694
0.373416
0.374592
0.376028
0.377691
0.379657
0.381961
0.384609
0.387402
0.389678
0.391136
0.39194
0.39229
0.392304
0.392106
0.391852
0.391718
0.391672
0.368049
0.368051
0.36825
0.368921
0.37007
0.371539
0.373303
0.375482
0.378155
0.381359
0.38481
0.387689
0.389658
0.390909
0.391588
0.391932
0.392019
0.39197
0.391941
0.391921
0.363342
0.363342
0.363513
0.36412
0.365212
0.366695
0.368583
0.371003
0.374065
0.37785
0.382094
0.385823
0.38849
0.390305
0.39149
0.392235
0.39269
0.392906
0.392998
0.392996
0.357909
0.357891
0.358075
0.358679
0.359814
0.36142
0.363561
0.366399
0.370079
0.374701
0.379953
0.384627
0.38805
0.390485
0.392199
0.393379
0.394133
0.394579
0.394764
0.39477
0.351461
0.351435
0.351645
0.352299
0.353544
0.355364
0.357854
0.361204
0.365622
0.371262
0.377769
0.38365
0.388044
0.39123
0.393512
0.395139
0.396262
0.396939
0.397207
0.39722
0.343673
0.343641
0.343899
0.344691
0.346142
0.348303
0.351311
0.355411
0.360857
0.367832
0.375892
0.383207
0.3887
0.392726
0.395637
0.39775
0.399233
0.400118
0.400448
0.400466
0.334169
0.334122
0.33445
0.335436
0.337233
0.339906
0.34365
0.348761
0.355546
0.364219
0.374205
0.383241
0.390044
0.395012
0.398659
0.401315
0.403188
0.404263
0.404662
0.40469
0.322538
0.322474
0.322894
0.324161
0.326447
0.329839
0.334599
0.341073
0.349611
0.360425
0.372775
0.383889
0.39221
0.398338
0.402826
0.406092
0.40837
0.409661
0.410142
0.410181
0.308216
0.308127
0.308675
0.310319
0.313302
0.317715
0.323874
0.332161
0.342967
0.356473
0.371693
0.385263
0.395405
0.402861
0.408328
0.412325
0.41504
0.416565
0.417152
0.417202
0.290453
0.290342
0.291093
0.293253
0.297177
0.303012
0.311088
0.321809
0.335547
0.352391
0.371047
0.3875
0.399759
0.408785
0.415405
0.420186
0.423436
0.425275
0.425981
0.426036
0.267899
0.267779
0.268883
0.271863
0.277125
0.285028
0.295786
0.309808
0.327333
0.348293
0.371012
0.390784
0.405446
0.416254
0.424182
0.429902
0.433784
0.435995
0.436828
0.436881
0.238308
0.238224
0.239998
0.244381
0.251853
0.262881
0.277535
0.296047
0.318432
0.344381
0.371798
0.395287
0.412609
0.42539
0.434792
0.441602
0.446256
0.448893
0.449853
0.449893
0.197563
0.197666
0.200926
0.208226
0.21975
0.235863
0.256225
0.280756
0.309189
0.340987
0.373663
0.401185
0.421352
0.436248
0.44727
0.455332
0.460895
0.463998
0.46506
0.465075
0.137917
0.139242
0.147172
0.160859
0.179939
0.204108
0.232439
0.264606
0.300187
0.338533
0.376841
0.408557
0.431647
0.448723
0.461458
0.470899
0.477493
0.481098
0.48223
0.482204
0.0664816
0.0686293
0.0836767
0.107402
0.137013
0.170654
0.207751
0.248125
0.291452
0.33714
0.382151
0.419264
0.446416
0.466695
0.482006
0.493496
0.501673
0.506147
0.507373
0.507424
-0.00699595
-4.83118e-05
0.0221797
0.0558341
0.0951879
0.138033
0.18383
0.232426
0.283544
0.336675
0.38854
0.431196
0.462489
0.486074
0.504203
0.518128
0.528026
0.532697
0.534457
0.534861
-0.065868
-0.057031
-0.0301176
0.010277
0.0571866
0.107808
0.161376
0.217591
0.276069
0.336241
0.394524
0.442204
0.477105
0.503394
0.523582
0.53904
0.550047
0.555919
0.558573
0.559122
-0.11376
-0.104369
-0.0739815
-0.0286946
0.0239672
0.0808001
0.140868
0.203731
0.268842
0.335473
0.399602
0.451737
0.489676
0.518103
0.539871
0.556599
0.56864
0.575391
0.57841
0.579026
-0.153878
-0.144283
-0.111631
-0.0625385
-0.00522408
0.056718
0.122267
0.19089
0.261868
0.334321
0.403727
0.459772
0.500259
0.530394
0.553335
0.5709
0.583633
0.591049
0.594279
0.594925
-0.188758
-0.17909
-0.144733
-0.0926068
-0.0314501
0.0348317
0.105132
0.178814
0.255048
0.332766
0.406979
0.466536
0.509209
0.540694
0.56445
0.582493
0.595545
0.603322
0.606667
0.607352
-0.219955
-0.210267
-0.174615
-0.119902
-0.0555423
0.0144545
0.0889361
0.167145
0.248153
0.330734
0.409432
0.472268
0.51692
0.549543
0.573897
0.592192
0.60536
0.613283
0.616593
0.617342
-0.248667
-0.238938
-0.202207
-0.145305
-0.0781766
-0.00490899
0.0732718
0.155564
0.240962
0.328111
0.411103
0.477119
0.52371
0.55741
0.582313
0.600854
0.614075
0.622108
0.625424
0.626051
-0.275669
-0.265884
-0.228192
-0.16941
-0.0998177
-0.023659
0.0578287
0.143832
0.233293
0.32477
0.411964
0.481176
0.529745
0.564611
0.590131
0.608965
0.622301
0.630309
0.633645
0.634142
-0.30145
-0.291594
-0.253011
-0.192613
-0.120787
-0.0420468
0.0424102
0.131789
0.225016
0.320617
0.411958
0.484478
0.535205
0.571396
0.597662
0.616868
0.630357
0.638349
0.641643
0.642127
-0.326429
-0.316408
-0.277
-0.215104
-0.141304
-0.0602571
0.0268789
0.119329
0.216051
0.31558
0.411059
0.48708
0.540203
0.577909
0.605084
0.624795
0.638516
0.646527
0.649702
0.650177
-0.350772
-0.340515
-0.300381
-0.237049
-0.161496
-0.0783923
0.0111597
0.106404
0.206351
0.309628
0.409243
0.488937
0.544703
0.584188
0.612468
0.632818
0.646838
0.654864
0.657904
0.658323
-0.374528
-0.364058
-0.323204
-0.258566
-0.181428
-0.0964732
-0.00476406
0.0929997
0.195909
0.302721
0.406403
0.489939
0.548669
0.590228
0.619831
0.640944
0.655295
0.663301
0.666175
0.666498
-0.397828
-0.387054
-0.345484
-0.279671
-0.201112
-0.114509
-0.0208802
0.0791391
0.184735
0.294826
0.402454
0.489992
0.55201
0.595992
0.62717
0.649167
0.663855
0.671797
0.674444
0.674637
-0.420589
-0.409539
-0.367256
-0.300358
-0.220525
-0.132464
-0.0371349
0.0648731
0.17286
0.285945
0.397359
0.488972
0.554577
0.601391
0.634479
0.657499
0.672465
0.680192
0.682543
0.682615
-0.442841
-0.431496
-0.388488
-0.320599
-0.239625
-0.150281
-0.0534699
0.0502746
0.160358
0.276127
0.391079
0.486744
0.556188
0.606287
0.641755
0.666016
0.68114
0.688415
0.690344
0.690282
-0.46441
-0.452838
-0.40913
-0.340342
-0.258349
-0.167879
-0.0698076
0.0354319
0.147324
0.265444
0.383596
0.483194
0.556632
0.610468
0.648959
0.674918
0.690075
0.696438
0.697677
0.697466
-0.485412
-0.473515
-0.429149
-0.359549
-0.276658
-0.185213
-0.0860461
0.0204386
0.133855
0.253986
0.37494
0.478225
0.555687
0.613615
0.655912
0.684474
0.69988
0.704609
0.704476
0.704003
-0.505688
-0.493492
-0.448512
-0.378163
-0.294465
-0.202189
-0.1021
0.00541834
0.12007
0.24184
0.365183
0.471775
0.553141
0.615303
0.662148
0.694745
0.711678
0.714493
0.711399
0.709632
-0.525288
-0.512816
-0.467164
-0.39613
-0.311726
-0.218739
-0.117884
-0.00954491
0.106089
0.229159
0.354429
0.463807
0.548841
0.615047
0.666763
0.704971
0.726173
0.729596
0.722654
0.712095
-0.544125
-0.531438
-0.48521
-0.413601
-0.328653
-0.235148
-0.133741
-0.0248649
0.091441
0.215406
0.342093
0.453671
0.542158
0.612179
0.668356
0.713305
0.741878
0.749841
0.743153
0.732691
-0.562157
-0.54926
-0.502654
-0.430533
-0.345232
-0.251417
-0.149647
-0.0405519
0.076097
0.200489
0.328029
0.441073
0.532455
0.606051
0.66433
0.71398
0.746071
0.758663
0.724144
0.669264
-0.579131
-0.565529
-0.519395
-0.446876