/*--------------------------------*- C++ -*----------------------------------*\
  =========                 |
  \\      /  F ield         | OpenFOAM: The Open Source CFD Toolbox
   \\    /   O peration     | Website:  https://openfoam.org
    \\  /    A nd           | Version:  9
     \\/     M anipulation  |
\*---------------------------------------------------------------------------*/
FoamFile
{
    format      ascii;
    class       volScalarField;
    location    "34";
    object      p;
}
// * * * * * * * * * * * * * * * * * * * * * * * * * * * * * * * * * * * * * //

dimensions      [0 2 -2 0 0 0 0];

internalField   nonuniform List<scalar> 
8800
(
1.11893
1.07114
1.03244
1.00344
0.982564
0.967715
0.957092
0.949577
0.944712
0.942592
0.943776
0.947899
0.954488
0.96376
0.976508
0.994221
1.01898
1.05291
1.09546
1.15416
0.950187
0.957865
0.965328
0.968632
0.96712
0.962029
0.955525
0.949422
0.944657
0.941752
0.941395
0.943818
0.948239
0.954132
0.960862
0.967113
0.970734
0.969986
0.964552
0.955854
0.92861
0.934769
0.938891
0.941826
0.943862
0.944448
0.943316
0.941175
0.939105
0.938121
0.938994
0.941295
0.944028
0.946158
0.946725
0.945496
0.943131
0.93972
0.935154
0.931391
0.922841
0.925489
0.928235
0.930628
0.93225
0.93339
0.934102
0.934177
0.933822
0.933687
0.93434
0.935419
0.936181
0.936184
0.935526
0.934396
0.93255
0.929956
0.92754
0.926036
0.917516
0.918939
0.920713
0.922735
0.924505
0.925824
0.92678
0.927528
0.928073
0.92854
0.929075
0.929462
0.929469
0.929105
0.928347
0.927047
0.92531
0.923431
0.922107
0.921276
0.912511
0.91343
0.914668
0.916226
0.917844
0.919346
0.920597
0.92161
0.922494
0.923273
0.923823
0.924017
0.92386
0.923323
0.922361
0.921092
0.91971
0.918408
0.917566
0.917017
0.907698
0.908367
0.909327
0.910624
0.912021
0.913457
0.914861
0.916126
0.917234
0.918206
0.918859
0.91906
0.918827
0.91819
0.917276
0.916238
0.915149
0.91417
0.913563
0.913161
0.903034
0.903549
0.904334
0.905463
0.906732
0.908086
0.909498
0.91091
0.912238
0.913414
0.914216
0.914476
0.914256
0.913701
0.912955
0.912108
0.911233
0.910478
0.910019
0.909707
0.898457
0.898864
0.899523
0.900534
0.901735
0.903043
0.904449
0.905935
0.907438
0.908846
0.909839
0.910233
0.910154
0.909771
0.909206
0.908532
0.907829
0.907247
0.906895
0.906646
0.893895
0.894224
0.894796
0.895734
0.896892
0.898186
0.899616
0.901178
0.902837
0.904491
0.905739
0.906363
0.906505
0.906324
0.905939
0.905441
0.90489
0.904443
0.904173
0.903969
0.889272
0.889541
0.890053
0.890951
0.892095
0.893413
0.894909
0.896586
0.898425
0.900347
0.90193
0.902874
0.903285
0.903325
0.903125
0.902792
0.902387
0.902057
0.901852
0.901682
0.884526
0.884746
0.885219
0.886111
0.887286
0.888674
0.890283
0.892143
0.894252
0.896533
0.898521
0.899819
0.900519
0.900797
0.900795
0.900617
0.900345
0.900113
0.899963
0.899819
0.879593
0.879773
0.880225
0.881134
0.882377
0.88387
0.885631
0.887719
0.890155
0.892883
0.895373
0.897114
0.898169
0.898733
0.89896
0.898957
0.898816
0.898673
0.898568
0.898446
0.8744
0.874543
0.874988
0.875939
0.87728
0.878919
0.880884
0.883265
0.886119
0.889418
0.892517
0.894783
0.896269
0.897173
0.897667
0.897867
0.897865
0.897811
0.89775
0.897644
0.868875
0.868987
0.869434
0.870444
0.871918
0.87375
0.875994
0.878756
0.882111
0.886081
0.889954
0.892913
0.894927
0.896221
0.896996
0.897424
0.897582
0.897628
0.897612
0.897522
0.862933
0.863
0.863459
0.864552
0.866202
0.868284
0.870877
0.874137
0.878191
0.883063
0.887853
0.891562
0.89419
0.895974
0.897121
0.89779
0.898145
0.898296
0.898322
0.898243
0.856383
0.856451
0.856926
0.858093
0.859918
0.862281
0.865293
0.869133
0.87397
0.87988
0.885837
0.890572
0.893993
0.896388
0.898031
0.899071
0.899674
0.899956
0.900028
0.899956
0.849005
0.849046
0.84956
0.850834
0.85292
0.855683
0.859267
0.863911
0.869825
0.877096
0.884439
0.890313
0.894617
0.897714
0.899934
0.901421
0.902331
0.902773
0.902889
0.902815
0.840482
0.840509
0.841083
0.842507
0.844895
0.848146
0.852431
0.858043
0.86525
0.874167
0.883237
0.89056
0.896005
0.89998
0.902888
0.904899
0.906196
0.906821
0.906975
0.906891
0.830268
0.830295
0.830959
0.832624
0.835446
0.839369
0.844605
0.85152
0.860414
0.871393
0.882538
0.891536
0.898267
0.903253
0.906963
0.909582
0.911294
0.912106
0.912297
0.912196
0.817705
0.817734
0.81855
0.820594
0.82407
0.828949
0.835485
0.844112
0.855156
0.86869
0.88232
0.893304
0.901535
0.907675
0.912273
0.91558
0.917722
0.918719
0.918944
0.918821
0.802014
0.802051
0.8031
0.805721
0.810156
0.816389
0.824705
0.835602
0.849389
0.866052
0.88265
0.895937
0.905896
0.913347
0.918964
0.923002
0.925598
0.926783
0.927041
0.926896
0.782098
0.782151
0.783565
0.787083
0.792962
0.801149
0.811962
0.825901
0.843192
0.863667
0.883717
0.899624
0.911532
0.920457
0.927197
0.932066
0.935153
0.936523
0.936806
0.936634
0.756237
0.756335
0.758381
0.763346
0.771489
0.782548
0.796902
0.814903
0.836602
0.861631
0.885646
0.904487
0.918544
0.929121
0.937111
0.942932
0.94654
0.948079
0.948372
0.948168
0.72141
0.721648
0.724976
0.73259
0.744508
0.760021
0.779403
0.802766
0.829904
0.860241
0.888679
0.910698
0.927075
0.939429
0.948846
0.955685
0.959803
0.961476
0.961754
0.961511
0.6718
0.672919
0.679581
0.692641
0.711101
0.73347
0.759797
0.789952
0.823531
0.859807
0.892992
0.918354
0.937155
0.951402
0.962337
0.970223
0.974821
0.976588
0.976815
0.976522
0.598486
0.606024
0.621383
0.644556
0.672729
0.704256
0.739109
0.777117
0.817882
0.860686
0.899087
0.928204
0.94982
0.966329
0.979081
0.988217
0.993485
0.995509
0.995791
0.995556
0.51995
0.537289
0.562052
0.595778
0.634054
0.674926
0.718425
0.764526
0.812946
0.863092
0.907836
0.941859
0.967303
0.986867
1.00204
1.01303
1.01924
1.02153
1.02192
1.02187
0.455149
0.475333
0.507935
0.55037
0.597439
0.647061
0.698884
0.75288
0.808762
0.865983
0.916737
0.955285
0.984138
1.00628
1.02327
1.03532
1.04233
1.0453
1.0457
1.04573
0.402382
0.424323
0.462136
0.510748
0.564687
0.621557
0.680693
0.741909
0.804779
0.868699
0.925037
0.967628
0.999324
1.02344
1.04179
1.05503
1.06319
1.06611
1.06662
1.06671
0.358775
0.381766
0.423109
0.476494
0.535897
0.598696
0.66408
0.73168
0.800902
0.870984
0.932433
0.978569
1.01266
1.03844
1.05806
1.07221
1.08093
1.08425
1.08496
1.08508
0.321703
0.345322
0.389328
0.446407
0.510246
0.57805
0.648846
0.722098
0.797066
0.872783
0.93886
0.988133
1.02426
1.05139
1.0719
1.08665
1.09579
1.09957
1.10047
1.10061
0.289124
0.313174
0.359232
0.419332
0.48689
0.558997
0.634555
0.712891
0.793101
0.874011
0.944341
0.996428
1.0343
1.0625
1.08367
1.09888
1.10827
1.11237
1.1134
1.11354
0.259519
0.283979
0.331707
0.394362
0.465119
0.540974
0.620784
0.703734
0.788786
0.874563
0.948903
1.00361
1.04307
1.07218
1.09384
1.10936
1.11897
1.12324
1.12429
1.12438
0.231954
0.256792
0.30603
0.370864
0.444411
0.523577
0.607195
0.694364
0.783935
0.874342
0.952561
1.00983
1.0508
1.08076
1.10287
1.11858
1.12825
1.13259
1.13372
1.13377
0.205672
0.230942
0.281577
0.348361
0.424394
0.506506
0.593559
0.684598
0.778402
0.873262
0.955329
1.01519
1.05773
1.08858
1.11115
1.12705
1.13673
1.14106
1.14225
1.14233
0.180395
0.2061
0.257827
0.32653
0.404793
0.48956
0.57972
0.674314
0.772092
0.871267
0.957208
1.01979
1.06404
1.09589
1.11898
1.13509
1.14482
1.14909
1.1502
1.15024
0.155747
0.182047
0.23479
0.305178
0.385445
0.472601
0.56558
0.663436
0.764937
0.868298
0.95819
1.02369
1.06985
1.10284
1.12657
1.14297
1.15274
1.15694
1.15792
1.15789
0.131643
0.158418
0.21231
0.28419
0.366263
0.455568
0.551092
0.651933
0.756908
0.864323
0.958247
1.0269
1.07521
1.10955
1.13403
1.15075
1.16052
1.1646
1.16546
1.16534
0.108007
0.135352
0.190245
0.263509
0.347221
0.43845
0.536255
0.639801
0.747997
0.859302
0.95731
1.02937
1.08014
1.11605
1.14139
1.15845
1.16816
1.17202
1.17272
1.17253
0.0847616
0.112727
0.168574
0.243127
0.32831
0.421262
0.521104
0.627078
0.738218
0.853203
0.95529
1.03101
1.0846
1.12239
1.14874
1.1661
1.17564
1.17919
1.17971
1.17947
0.0619214
0.0905661
0.147349
0.223075
0.309579
0.404048
0.505694
0.613819
0.727608
0.846003
0.952112
1.0317
1.08852
1.12859
1.15614
1.17373
1.1829
1.186
1.18632
1.18604
0.0396599
0.0689413
0.126614
0.203395
0.291078
0.386885
0.490096
0.600107
0.716236
0.83774
0.947713
1.03132
1.09174
1.13462
1.16377
1.18152
1.18995
1.19236
1.19245
1.19215
0.0180137
0.0478978
0.106401
0.18415
0.272871
0.36984
0.474407
0.586029
0.704191
0.828456
0.942046
1.02969
1.09405
1.14039
1.17183
1.18992
1.19711
1.19827
1.198
1.19773
-0.00307485
0.0274827
0.0867541
0.165381
0.255027
0.352999
0.458718
0.571696
0.691577
0.818225
0.935075
1.02667
1.0952
1.1456
1.18036
1.19967
1.20535
1.20422
1.20297
1.20293
-0.023425
0.00772526
0.0677383
0.147161
0.237612
0.336448
0.44313
0.557223
0.678518
0.807156
0.926817
1.02213
1.09486
1.14971
1.18898
1.21139
1.21681
1.2127
1.20875
1.20785
-0.0431249
-0.0113622
0.0493378
0.129464
0.220592
0.32014
0.427582
0.542548
0.664941
0.795177
0.917145
1.01581
1.0927
1.15199
1.19658
1.2246
1.23339
1.22942
1.21911
1.20253
-0.0620973
-0.0297685
0.031432
0.112098
0.203673
0.303735
0.411651
0.527175
0.650292
0.781627
0.905376
1.00686
1.08805
1.15132
1.20062
1.23554
1.2487
1.23877
1.22094
1.20454
-0.0801638
-0.0476224
0.0142105
0.0953028
0.18716
0.287585
0.395567
0.51144
0.634896
0.766797
0.89166
0.994922
1.08037
1.14667
1.19603
1.23083
1.2474
1.22825
1.1583
1.12565
-0.0966656
-0.0661035
-0.00199668
0.0796723
0.171774
0.272186
0.379627
0.49557
0.618975
0.750828
0.875987
0.979817
1.06856
1.13795
1.17868
1.20548
1.20602
1.15575
1.0849
1.0408
-0.153042
-0.0823618
-0.0169069
0.0640956
0.15605
0.256124
0.363769
0.479292
0.602172
0.733295
0.85782
0.96115
1.04922
1.12581
1.13063
1.14398
1.10709
1.04195
0.965366
0.922296
-0.114524
-0.0984433
-0.03869
0.0420358
0.133175
0.232992
0.339645
0.45436
0.576017
0.705324
0.82723
0.928116
1.00764
1.085
1.08086
0.97597
0.873433
0.802075
0.728886
0.763122
-0.146033
-0.116589
-0.0559319
0.0241902
0.115391
0.21488
0.321714
0.435723
0.556209
0.683539
0.802356
0.899137
0.971098
1.01181
0.967628
0.824466
0.697572
0.606861
0.50707
0.560819
-0.170377
-0.137977
-0.0760655
0.00435078
0.0956397
0.194988
0.301677
0.414781
0.533779
0.658598
0.773582
0.864768
0.927161
0.936529
0.8342
0.661163
0.506864
0.386495
0.2538
0.288954
-0.194214
-0.160258
-0.0971357
-0.0158611
0.0756165
0.174835
0.28099
0.393076
0.510414
0.632408
0.742788
0.827734
0.87515
0.85294
0.69742
0.498862
0.304765
0.129715
-0.0660662
-0.0783729
-0.217393
-0.183041
-0.11902
-0.0369928
0.0547113
0.153751
0.259263
0.370232
0.485684
0.604521
0.709759
0.787594
0.817959
0.760966
0.567466
0.353154
0.12977
-0.0683308
-0.321541
-0.640029
-0.240866
-0.20653
-0.141991
-0.0594497
0.0324949
0.131414
0.236361
0.346199
0.459688
0.575172
0.675105
0.744744
0.757578
0.649955
0.454798
0.240842
0.0303724
-0.148479
-0.216074
-0.30814
-0.265534
-0.231186
-0.16638
-0.0835754
0.00847824
0.107192
0.211487
0.320035
0.431271
0.542929
0.63715
0.696861
0.684763
0.542606
0.35542
0.161202
-0.00532055
-0.0998485
-0.123739
-0.140901
-0.291723
-0.257332
-0.192353
-0.109451
-0.0174635
0.080887
0.184301
0.291269
0.399857
0.507082
0.595111
0.642488
0.611061
0.442797
0.265475
0.0975127
-0.0322988
-0.0706484
-0.0851513
-0.0869146
-0.319643
-0.285127
-0.219969
-0.137058
-0.0452682
0.0525072
0.154802
0.259871
0.365391
0.467635
0.548725
0.582771
0.534244
0.349396
0.18155
0.0318518
-0.0499625
-0.0656966
-0.0671375
-0.0671298
-0.349332
-0.314574
-0.249243
-0.166377
-0.0749318
0.0220843
0.123009
0.225846
0.327888
0.424684
0.49789
0.521079
0.438109
0.26319
0.103405
-0.0200832
-0.054771
-0.0574317
-0.0577244
-0.0571878
-0.38049
-0.345533
-0.280047
-0.197302
-0.106343
-0.0102995
0.0889835
0.189254
0.287395
0.378327
0.443231
0.4507
0.343904
0.182432
0.0396869
-0.0406548
-0.0497917
-0.0514917
-0.0521252
-0.051843
-0.412543
-0.377504
-0.312113
-0.229592
-0.139288
-0.0444519
0.0529145
0.150266
0.244116
0.32879
0.38572
0.376376
0.258697
0.109785
-0.0125705
-0.034315
-0.0472675
-0.0490631
-0.0479068
-0.0473554
-0.44504
-0.410002
-0.344936
-0.262833
-0.173388
-0.0800109
0.0151288
0.109218
0.198395
0.276673
0.325126
0.304305
0.178466
0.0428754
-0.0517885
-0.0820827
-0.0598813
-0.0468717
-0.0433941
-0.0424176
-0.477135
-0.442337
-0.377712
-0.296378
-0.208072
-0.116449
-0.0238581
0.0666456
0.150779
0.222671
0.261749
0.235629
0.106624
-0.0136781
-0.0883594
-0.0684591
-0.0597019
-0.0525659
-0.0465243
-0.043622
-0.507259
-0.473342
-0.409551
-0.329326
-0.24252
-0.152994
-0.0632991
0.0233213
0.102106
0.167329
0.200878
0.161925
0.0444475
-0.0579735
-0.129117
-0.111136
-0.0844659
-0.0656019
-0.0586118
-0.0557629
-0.534014
-0.50106
-0.439329
-0.360529
-0.275667
-0.188611
-0.102193
-0.0197557
0.053621
0.111447
0.145191
0.0836433
-0.0125138
-0.0475638
-0.0570063
-0.0951256
-0.107743
-0.110579
-0.11063
-0.108887
-0.555403
-0.524289
-0.464947
-0.388555
-0.30619
-0.222062
-0.139237
-0.0612973
0.00669692
0.0564293
0.0900215
0.00687833
-0.0900795
-0.0452405
-0.0379235
-0.153462
-0.240662
-0.274113
-0.271358
-0.264343
-0.569447
-0.540969
-0.484854
-0.411606
-0.332459
-0.251838
-0.172931
-0.0996278
-0.0372241
0.00481342
0.0321246
-0.080023
-0.256627
-0.413488
-0.420724
-0.437828
-0.483541
-0.489526
-0.473502
-0.467992
-0.573706
-0.549106
-0.497231
-0.427965
-0.35274
-0.276194
-0.201467
-0.132714
-0.076121
-0.0408888
-0.0277658
-0.186579
-0.414708
-0.681075
-0.649985
-0.560315
-0.558182
-0.542073
-0.539061
-0.539661
-0.566569
-0.546461
-0.500086
-0.436069
-0.365477
-0.293401
-0.222873
-0.158259
-0.106661
-0.0783698
-0.0871699
-0.242954
-0.341055
-0.222695
-0.0697447
-0.294319
-0.517094
-0.556108
-0.562646
-0.562389
-0.54613
-0.530395
-0.491895
-0.43474
-0.369584
-0.302087
-0.235381
-0.173688
-0.124632
-0.101288
-0.121934
-0.25968
-0.465055
-0.645438
-0.884087
-1.27272
-1.22357
-0.943104
-0.764531
-0.755912
-0.513851
-0.503226
-0.472981
-0.424109
-0.364807
-0.301663
-0.237753
-0.17705
-0.12655
-0.100227
-0.126056
-0.314551
-0.806864
-1.57905
-2.14878
-2.44737
-2.35507
-2.01678
-1.67733
-1.49321
-0.474474
-0.468294
-0.447002
-0.406214
-0.352588
-0.292808
-0.229864
-0.167403
-0.11081
-0.0717127
-0.0782147
-0.210657
-0.517812
-0.876817
-1.21349
-1.3386
-1.20306
-0.956408
-0.737122
-0.603918
-0.434755
-0.431315
-0.418759
-0.385527
-0.335982
-0.277775
-0.213725
-0.145532
-0.0775873
-0.0095497
0.0420906
0.111088
0.220166
0.460396
0.766037
1.0936
1.37845
1.57485
1.6901
1.73673
-0.401002
-0.398969
-0.392373
-0.366482
-0.319885
-0.260299
-0.192731
-0.116973
-0.0323371
0.0613395
0.180952
0.333284
0.68452
1.22578
1.82329
2.36932
2.78521
3.03373
3.14177
3.17172
-0.369929
-0.369372
-0.367456
-0.349791
-0.306196
-0.244576
-0.172322
-0.0904378
0.00337794
0.112503
0.236017
0.371224
0.630046
1.15512
1.71481
2.22092
2.59311
2.81125
2.91259
2.94231
-0.342918
-0.342498
-0.342181
-0.331926
-0.293371
-0.230592
-0.15469
-0.0692064
0.0252467
0.133884
0.248579
0.37429
0.538842
0.938376
1.40798
1.80496
2.10832
2.28742
2.36899
2.39173
-0.320799
-0.31941
-0.319047
-0.31416
-0.280106
-0.215949
-0.137445
-0.0515189
0.0407374
0.145334
0.252955
0.363162
0.479358
0.726494
1.07416
1.36978
1.59276
1.72149
1.7783
1.792
-0.309665
-0.309664
-0.311911
-0.307262
-0.268317
-0.197339
-0.115856
-0.0315818
0.0561324
0.151713
0.244212
0.329659
0.412702
0.570881
0.803555
1.0056
1.15659
1.2451
1.2851
1.29288
-0.287937
-0.292369
-0.297066
-0.288345
-0.243093
-0.165898
-0.0853543
-0.00672605
0.0718143
0.154004
0.23077
0.295612
0.359486
0.453765
0.608135
0.741594
0.837893
0.893377
0.915959
0.919547
-0.20618
-0.212313
-0.217977
-0.208393
-0.167579
-0.104831
-0.0384874
0.0264556
0.0910547
0.157761
0.218029
0.263913
0.30577
0.365652
0.465562
0.552428
0.612864
0.6461
0.660001
0.661143
-0.0630232
-0.0669261
-0.0708347
-0.0666557
-0.0459019
-0.0129882
0.0260624
0.0687034
0.114596
0.16412
0.207134
0.236489
0.260782
0.298774
0.362481
0.420017
0.458587
0.479425
0.487549
0.487234
0.0816933
0.0800011
0.0766698
0.0727614
0.0729693
0.0787359
0.0921006
0.112589
0.140163
0.172938
0.202224
0.219834
0.23141
0.255142
0.297381
0.334946
0.359757
0.372336
0.376692
0.375902
0.179861
0.179184
0.175922
0.167742
0.156108
0.147343
0.145172
0.150842
0.164587
0.184856
0.203612
0.21336
0.216465
0.235877
0.266862
0.290394
0.30404
0.309999
0.311593
0.310629
0.228298
0.227808
0.224777
0.216416
0.203311
0.190548
0.181978
0.179792
0.185019
0.197068
0.210435
0.217886
0.220441
0.235405
0.257666
0.272083
0.279329
0.281856
0.282093
0.281076
0.245451
0.245007
0.242634
0.23619
0.225573
0.214045
0.204674
0.199761
0.200796
0.208564
0.220419
0.230893
0.239418
0.252295
0.264596
0.271397
0.274577
0.275948
0.276247
0.275333
0.247409
0.247002
0.245287
0.240944
0.233602
0.224991
0.217157
0.212142
0.211603
0.217575
0.230309
0.246357
0.262315
0.274052
0.279551
0.281577
0.28343
0.284374
0.284698
0.2836
0.243702
0.243343
0.242127
0.239337
0.234606
0.228657
0.22277
0.218511
0.217515
0.222565
0.236463
0.258515
0.281994
0.29209
0.290678
0.291142
0.293534
0.297138
0.298164
0.296643
0.238829
0.238518
0.237613
0.235713
0.232672
0.228605
0.224206
0.22049
0.218882
0.222066
0.234714
0.258336
0.285209
0.292504
0.288422
0.290821
0.295651
0.301208
0.30328
0.301591
0.234466
0.234201
0.233481
0.23197
0.229671
0.226764
0.223173
0.219452
0.21636
0.215577
0.221391
0.237782
0.258371
0.260504
0.256702
0.262949
0.275239
0.285307
0.288044
0.285931
0.230901
0.230692
0.230143
0.228887
0.226933
0.224267
0.221091
0.216972
0.21172
0.204869
0.197757
0.194694
0.195514
0.190939
0.196806
0.213455
0.22997
0.240794
0.242467
0.240199
0.227743
0.227606
0.227255
0.226305
0.224607
0.222313
0.218969
0.214642
0.207347
0.194128
0.170384
0.13853
0.105445
0.10176
0.12167
0.14525
0.161624
0.169358
0.170816
0.169987
0.224247
0.224183
0.224051
0.223581
0.222179
0.220578
0.218071
0.214063
0.206581
0.189692
0.153006
0.0900493
0.0319242
0.0306714
0.0618309
0.0870226
0.0974335
0.100883
0.102006
0.101857
0.219628
0.219676
0.219882
0.220044
0.219904
0.219003
0.21817
0.216263
0.210866
0.195156
0.157005
0.0873742
0.0241949
0.028813
0.0492631
0.0575764
0.0585313
0.056513
0.0565335
0.0565239
0.212885
0.213025
0.213431
0.214026
0.215029
0.216631
0.218606
0.220686
0.22068
0.212219
0.187835
0.133764
0.0918417
0.0850686
0.0814642
0.0634564
0.0474601
0.0386579
0.0382061
0.0391425
0.202697
0.203037
0.204078
0.206
0.208701
0.212761
0.218174
0.225509
0.23338
0.23789
0.234445
0.209849
0.187107
0.16449
0.130296
0.0933251
0.0656401
0.0529519
0.0508126
0.0512581
0.186087
0.18663
0.188378
0.191698
0.196824
0.204244
0.214554
0.227742
0.243545
0.261819
0.273154
0.277466
0.273526
0.229093
0.176906
0.133114
0.104096
0.087889
0.0836547
0.0847237
0.160099
0.160868
0.163395
0.168363
0.176239
0.187284
0.201947
0.220846
0.244362
0.270703
0.292736
0.301004
0.296702
0.246378
0.198179
0.169954
0.152669
0.140439
0.134955
0.135527
0.122217
0.123076
0.126019
0.132561
0.142755
0.156905
0.175466
0.198315
0.223671
0.249933
0.268952
0.272737
0.257289
0.216389
0.191957
0.180787
0.178855
0.168871
0.16317
0.162481
0.0721262
0.072945
0.0762384
0.0823292
0.0916808
0.10463
0.121819
0.141998
0.158672
0.170971
0.190292
0.18952
0.167862
0.132265
0.129169
0.137025
0.141557
0.131609
0.126921
0.126413
0.0162772
0.0158936
0.0157115
0.0158404
0.0173362
0.0199742
0.0234021
0.026015
0.0228104
0.0232119
0.0362329
0.0527935
0.0529315
0.0466378
0.037713
0.0337643
0.0192848
0.0272935
0.0303726
0.0316601
0.171651
0.348579
0.555312
0.73315
0.876241
0.99015
1.08504
1.16518
1.201
1.1779
0.493872
0.620913
0.756964
0.874778
0.974498
1.0574
1.12449
1.17199
1.19595
1.20785
0.723993
0.810806
0.90354
0.985764
1.05657
1.11583
1.16289
1.19723
1.22192
1.23972
0.89162
0.952972
1.018
1.07748
1.12926
1.1732
1.20921
1.23786
1.26125
1.27944
1.02164
1.06665
1.11408
1.15939
1.19946
1.23438
1.26421
1.28895
1.30972
1.32749
1.12862
1.16255
1.20172
1.23829
1.2718
1.30176
1.32789
1.34981
1.36792
1.38524
1.22283
1.25215
1.28688
1.31965
1.35015
1.37779
1.40191
1.4219
1.43759
1.45466
1.31249
1.34209
1.37657
1.409
1.43896
1.46585
1.48896
1.50763
1.52114
1.53818
1.40849
1.44187
1.47883
1.51268
1.54296
1.56934
1.59146
1.60886
1.62082
1.63823
1.52398
1.56181
1.60066
1.63511
1.6646
1.68947
1.70994
1.72591
1.73743
1.75552
1.66924
1.7079
1.74402
1.77479
1.80056
1.82272
1.84184
1.85741
1.86988
1.88789
1.84429
1.87612
1.90234
1.9248
1.94482
1.96358
1.98133
1.99784
2.01321
2.03129
2.03298
2.05026
2.06538
2.08164
2.09757
2.11213
2.12535
2.1393
2.15686
2.17702
2.21489
2.22437
2.23593
2.24676
2.25605
2.26566
2.27647
2.28785
2.29922
2.31458
2.42206
2.42575
2.41081
2.39601
2.38976
2.39545
2.41394
2.44426
2.47644
2.5031
2.72839
2.59353
2.51691
2.47457
2.45716
2.46113
2.48853
2.54495
2.64758
2.87194
1.00952
1.00739
1.0029
0.994274
0.982041
0.969899
0.959651
0.951725
0.946062
0.942745
0.942308
0.944957
0.949988
0.957155
0.966502
0.978012
0.990641
1.00166
1.00777
1.01081
0.933991
0.939835
0.946171
0.950655
0.953114
0.952775
0.950018
0.946177
0.94262
0.94029
0.940052
0.942158
0.945743
0.949971
0.953733
0.955583
0.954622
0.951121
0.945944
0.939317
0.925599
0.927895
0.931294
0.934282
0.936346
0.937826
0.938557
0.938204
0.937126
0.936168
0.936244
0.937569
0.939299
0.940535
0.940661
0.93973
0.938149
0.935789
0.932509
0.929581
0.920131
0.921217
0.923046
0.925416
0.927428
0.928839
0.929833
0.930543
0.930885
0.931024
0.931402
0.932092
0.932588
0.932571
0.932092
0.931191
0.929681
0.927563
0.925454
0.924064
0.914985
0.915648
0.916752
0.91845
0.920219
0.921833
0.923101
0.924071
0.924886
0.925578
0.926176
0.926587
0.926658
0.926388
0.925737
0.924614
0.923132
0.921544
0.920197
0.919409
0.910084
0.910544
0.911327
0.912621
0.914099
0.9156
0.917036
0.918286
0.919346
0.920288
0.921047
0.921443
0.921437
0.921032
0.920225
0.919144
0.917944
0.916751
0.915799
0.915275
0.905352
0.905696
0.906306
0.907372
0.908659
0.910018
0.911429
0.912826
0.914117
0.915266
0.916188
0.916671
0.916655
0.916208
0.915464
0.914568
0.913618
0.912674
0.911957
0.911571
0.90074
0.901006
0.901499
0.902411
0.903579
0.904863
0.906229
0.907666
0.909118
0.91049
0.911614
0.912222
0.912276
0.911937
0.911359
0.910642
0.909865
0.909122
0.908575
0.90828
0.896182
0.896391
0.896802
0.897608
0.898702
0.899941
0.901292
0.902761
0.904321
0.905894
0.907258
0.908069
0.90831
0.908163
0.90777
0.90723
0.906616
0.906036
0.905618
0.905387
0.891599
0.891765
0.892116
0.892854
0.893906
0.895125
0.8965
0.898036
0.899722
0.901508
0.903155
0.904254
0.904754
0.904836
0.904637
0.904272
0.903824
0.903384
0.90307
0.902887
0.886921
0.887052
0.88736
0.888058
0.889104
0.890353
0.891793
0.893446
0.895313
0.897355
0.899348
0.900819
0.90163
0.901963
0.901976
0.90178
0.901479
0.901161
0.900932
0.900789
0.882091
0.882192
0.88247
0.883152
0.884224
0.885543
0.887089
0.888912
0.891033
0.893427
0.895859
0.897761
0.898923
0.899542
0.899788
0.899781
0.899627
0.899424
0.899268
0.899156
0.877038
0.877112
0.877371
0.87806
0.879186
0.880609
0.8823
0.884335
0.886771
0.889606
0.892586
0.895016
0.896612
0.897583
0.898106
0.898317
0.898315
0.898226
0.898136
0.898051
0.871691
0.87174
0.871983
0.872691
0.873899
0.87546
0.877352
0.879668
0.882479
0.885836
0.889485
0.892588
0.894735
0.896135
0.896973
0.897425
0.897607
0.897644
0.897625
0.897566
0.865959
0.865976
0.866215
0.866966
0.868295
0.87005
0.87221
0.874907
0.87825
0.882304
0.886787
0.890688
0.893462
0.895336
0.896545
0.897256
0.897662
0.897835
0.897883
0.897847
0.859753
0.859763
0.859984
0.860772
0.862219
0.864185
0.866658
0.869799
0.873761
0.878662
0.884176
0.889058
0.892634
0.895152
0.896833
0.89791
0.898596
0.898934
0.899057
0.899043
0.852808
0.852781
0.853036
0.853887
0.855494
0.857715
0.860602
0.864328
0.869091
0.875041
0.881822
0.887923
0.89244
0.895683
0.89796
0.89953
0.900552
0.9011
0.901313
0.901318
0.84491
0.844863
0.845132
0.846072
0.847878
0.850458
0.853875
0.858352
0.864147
0.871449
0.879795
0.887328
0.892987
0.897121
0.900099
0.902233
0.903658
0.904466
0.904775
0.90479
0.835603
0.83554
0.835856
0.836935
0.838999
0.842027
0.846119
0.851548
0.858626
0.867572
0.877844
0.887164
0.894207
0.89941
0.903233
0.906035
0.907963
0.909065
0.909472
0.909489
0.824276
0.824195
0.824594
0.825894
0.828363
0.832056
0.837099
0.843834
0.852623
0.863691
0.876308
0.88771
0.896327
0.902756
0.907525
0.911058
0.913535
0.914938
0.91544
0.915458
0.810218
0.810117
0.810648
0.812295
0.815374
0.820012
0.826367
0.834838
0.845821
0.859524
0.874997
0.888877
0.899361
0.907192
0.913061
0.917428
0.920482
0.922191
0.922787
0.922804
0.792507
0.792386
0.793128
0.795305
0.799298
0.805325
0.813535
0.824381
0.838246
0.855254
0.874137
0.89089
0.903497
0.912915
0.920012
0.925287
0.928979
0.931009
0.931695
0.931709
0.769775
0.769644
0.770745
0.773758
0.779156
0.787237
0.79811
0.812211
0.829824
0.850912
0.873828
0.893865
0.908846
0.920058
0.928519
0.934828
0.939228
0.941588
0.942353
0.942356
0.739747
0.739651
0.741406
0.74585
0.753565
0.764847
0.779646
0.798224
0.820671
0.846715
0.874286
0.897981
0.915571
0.928724
0.938696
0.946192
0.951345
0.954014
0.954841
0.954821
0.698258
0.698343
0.701522
0.708908
0.720871
0.73741
0.758017
0.782645
0.811131
0.842998
0.875771
0.903416
0.923769
0.939003
0.950615
0.959413
0.965312
0.968228
0.969079
0.969025
0.637581
0.638834
0.646557
0.660434
0.68016
0.705046
0.733797
0.766144
0.801797
0.84018
0.878512
0.910262
0.933468
0.95085
0.964157
0.974174
0.980766
0.98391
0.984695
0.984596
0.5652
0.567196
0.581791
0.605684
0.636286
0.670959
0.70866
0.749308
0.792714
0.838382
0.883309
0.92035
0.947543
0.96808
0.983818
0.995457
1.00314
1.00675
1.00774
1.00772
0.490849
0.497454
0.518854
0.552788
0.593513
0.637734
0.68435
0.733313
0.784539
0.837599
0.889305
0.931845
0.963181
0.98698
1.00536
1.01909
1.0279
1.0313
1.03222
1.0324
0.430903
0.439423
0.465554
0.506329
0.554768
0.606988
0.661558
0.718268
0.776922
0.837056
0.89521
0.942832
0.977818
1.00429
1.02451
1.03949
1.04889
1.05325
1.05488
1.05516
0.382301
0.391377
0.420953
0.466636
0.520955
0.579555
0.64078
0.704293
0.7697
0.836411
0.900547
0.952775
0.990899
1.01952
1.04131
1.05749
1.06807
1.07312
1.07505
1.07538
0.341779
0.351068
0.382939
0.43235
0.491331
0.555129
0.621986
0.691423
0.762863
0.835565
0.905181
0.961522
1.00236
1.03281
1.05587
1.073
1.0844
1.09007
1.09223
1.09257
0.306742
0.316117
0.349702
0.4021
0.464835
0.532993
0.604718
0.679381
0.756263
0.834435
0.909068
0.969123
1.01231
1.04426
1.06827
1.0861
1.09801
1.10415
1.10646
1.10684
0.275503
0.284919
0.319809
0.374692
0.440569
0.512456
0.588451
0.667798
0.749638
0.832864
0.912168
0.975656
1.02096
1.05419
1.07896
1.09726
1.10949
1.116
1.11841
1.1188
0.246792
0.256271
0.292279
0.349273
0.417836
0.492973
0.572752
0.656328
0.742728
0.830695
0.914443
0.981209
1.02852
1.06291
1.08834
1.10696
1.11942
1.12608
1.12847
1.12889
0.219788
0.229324
0.266353
0.325189
0.396154
0.474157
0.557307
0.64472
0.735344
0.827794
0.915848
0.985859
1.03516
1.07071
1.09676
1.11569
1.12827
1.13501
1.1374
1.1377
0.193951
0.203609
0.241574
0.301995
0.375155
0.455721
0.541904
0.63281
0.727346
0.824059
0.916347
0.989657
1.04106
1.07785
1.10459
1.12385
1.13656
1.14328
1.14566
1.14591
0.168882
0.178745
0.217522
0.279496
0.354597
0.437472
0.526396
0.620484
0.718652
0.819423
0.915902
0.992644
1.04631
1.0845
1.11204
1.13171
1.14457
1.15126
1.15355
1.15381
0.144388
0.15449
0.194063
0.257517
0.334354
0.4193
0.510698
0.607684
0.709207
0.81384
0.914484
0.994822
1.05099
1.09079
1.11927
1.13943
1.15247
1.15911
1.16127
1.16147
0.120416
0.130754
0.17117
0.235934
0.314354
0.40117
0.494784
0.59439
0.698998
0.807276
0.912044
0.996162
1.05511
1.09675
1.12634
1.14706
1.16024
1.16677
1.16876
1.16889
0.0968654
0.107535
0.148691
0.214706
0.294575
0.383067
0.478662
0.580621
0.688039
0.799727
0.90852
0.99657
1.05861
1.10242
1.13331
1.15463
1.16792
1.17426
1.17602
1.17605
0.0737904
0.0847578
0.126695
0.193847
0.275032
0.365021
0.462379
0.566428
0.676367
0.79119
0.903855
0.995945
1.06142
1.10778
1.14024
1.16222
1.17547
1.18145
1.18293
1.18287
0.0511697
0.0624635
0.105208
0.173402
0.255768
0.347081
0.445992
0.551881
0.66405
0.781698
0.898019
0.994193
1.06339
1.11277
1.1472
1.16993
1.18292
1.1883
1.1894
1.18925
0.0292026
0.0407482
0.0842631
0.153418
0.236847
0.329332
0.429576
0.537062
0.65117
0.771323
0.891004
0.991202
1.06436
1.11725
1.15426
1.17805
1.19051
1.19482
1.19534
1.19511
0.00775963
0.019663
0.0639023
0.133934
0.21831
0.31182
0.413229
0.522061
0.637827
0.76016
0.882831
0.986869
1.06411
1.12098
1.16138
1.187
1.19891
1.20136
1.20074
1.20035
-0.0129847
-0.000756464
0.044167
0.11501
0.200244
0.294634
0.397038
0.507004
0.624141
0.748287
0.873556
0.981119
1.06243
1.12357
1.16821
1.19705
1.20936
1.20946
1.20624
1.20475
-0.0330819
-0.0205467
0.0251153
0.0967049
0.182694
0.277848
0.381089
0.491975
0.610228
0.73585
0.863273
0.973895
1.05915
1.12458
1.17397
1.20769
1.22302
1.22265
1.21536
1.20549
-0.0524461
-0.0396623
0.00664945
0.0788666
0.165449
0.261173
0.365037
0.476557
0.595617
0.722318
0.851413
0.964567
1.05366
1.12336
1.17745
1.21741
1.23913
1.24191
1.23239
1.2237
-0.0710204
-0.0580148
-0.0112269
0.0615404
0.148523
0.244608
0.348903
0.460736
0.580271
0.707588
0.837811
0.952806
1.0453
1.11921
1.17619
1.22061
1.24536
1.25335
1.21674
1.16324
-0.0885227
-0.0748262
-0.0284043
0.0447925
0.131811
0.228019
0.332645
0.444632
0.564259
0.691736
0.822431
0.938481
1.03311
1.11181
1.16824
1.20604
1.23187
1.22106
1.16405
1.09913
-0.105276
-0.090689
-0.0446918
0.0292534
0.115651
0.211888
0.316039
0.428308
0.547729
0.674938
0.805305
0.92147
1.01603
1.10232
1.15212
1.20441
1.17608
1.13548
1.06591
0.997221
-0.0914419
-0.0733142
-0.024445
0.0538444
0.145228
0.245321
0.354886
0.470147
0.592654
0.723252
0.847188
0.950104
1.03628
1.12803
1.17645
1.09671
1.05222
0.989963
0.917017
0.868581
-0.115969
-0.0996278
-0.0637883
0.00465903
0.0906025
0.186302
0.290599
0.402234
0.520837
0.646739
0.775106
0.889342
0.980562
1.06066
1.13225
1.13348
1.01317
0.929964
0.867365
0.78381
-0.136362
-0.120639
-0.0791066
-0.00923328
0.0769931
0.172315
0.275423
0.38613
0.503716
0.628128
0.754643
0.866545
0.954786
1.02224
1.0493
0.97915
0.839548
0.743456
0.667896
0.578546
-0.157189
-0.144569
-0.0985649
-0.0273818
0.0590449
0.154567
0.257622
0.367979
0.484621
0.607453
0.731035
0.838336
0.919328
0.971406
0.949934
0.821971
0.669329
0.550671
0.45172
0.313063
-0.181265
-0.168127
-0.12003
-0.04769
0.0390885
0.134647
0.237582
0.347323
0.462816