/*--------------------------------*- C++ -*----------------------------------*\
  =========                 |
  \\      /  F ield         | OpenFOAM: The Open Source CFD Toolbox
   \\    /   O peration     | Website:  https://openfoam.org
    \\  /    A nd           | Version:  9
     \\/     M anipulation  |
\*---------------------------------------------------------------------------*/
FoamFile
{
    format      ascii;
    class       volScalarField;
    location    "33";
    object      p;
}
// * * * * * * * * * * * * * * * * * * * * * * * * * * * * * * * * * * * * * //

dimensions      [0 2 -2 0 0 0 0];

internalField   nonuniform List<scalar> 
8800
(
1.33661
1.28882
1.25013
1.22113
1.20025
1.1854
1.17478
1.16726
1.16239
1.16027
1.16145
1.16557
1.17215
1.18142
1.19417
1.21188
1.23664
1.27057
1.31311
1.37181
1.16787
1.17555
1.18301
1.18632
1.18481
1.17972
1.17321
1.16711
1.16234
1.15943
1.15907
1.16149
1.1659
1.17179
1.17852
1.18477
1.18839
1.18764
1.1822
1.17351
1.1463
1.15246
1.15658
1.15951
1.16155
1.16214
1.161
1.15886
1.15679
1.1558
1.15667
1.15896
1.16169
1.16382
1.16438
1.16315
1.16078
1.15737
1.1528
1.14904
1.14053
1.14318
1.14592
1.14832
1.14994
1.15108
1.15179
1.15186
1.15151
1.15137
1.15201
1.15309
1.15384
1.15384
1.15318
1.15205
1.1502
1.1476
1.14518
1.14368
1.1352
1.13663
1.1384
1.14042
1.14219
1.14351
1.14447
1.14522
1.14576
1.14622
1.14675
1.14713
1.14713
1.14676
1.14599
1.14469
1.14295
1.14107
1.13974
1.13891
1.1302
1.13112
1.13236
1.13392
1.13554
1.13704
1.1383
1.13931
1.14019
1.14096
1.1415
1.14169
1.14152
1.14098
1.14001
1.13873
1.13734
1.13604
1.13519
1.13464
1.12539
1.12606
1.12702
1.12832
1.12972
1.13116
1.13256
1.13383
1.13494
1.1359
1.13654
1.13673
1.13649
1.13584
1.13491
1.13387
1.13277
1.13179
1.13118
1.13078
1.12073
1.12125
1.12203
1.12317
1.12444
1.1258
1.12721
1.12863
1.12995
1.13112
1.13191
1.13216
1.13192
1.13135
1.13059
1.12973
1.12885
1.12808
1.12762
1.12731
1.11616
1.11657
1.11723
1.11825
1.11946
1.12077
1.12218
1.12366
1.12516
1.12656
1.12754
1.12792
1.12782
1.12742
1.12684
1.12615
1.12543
1.12484
1.12449
1.12424
1.11161
1.11194
1.11251
1.11346
1.11462
1.11592
1.11736
1.11892
1.12058
1.12222
1.12345
1.12405
1.12417
1.12397
1.12357
1.12305
1.12249
1.12203
1.12175
1.12155
1.10701
1.10727
1.10779
1.1087
1.10985
1.11118
1.11268
1.11436
1.11619
1.1181
1.11966
1.12058
1.12097
1.12098
1.12076
1.1204
1.11997
1.11963
1.11942
1.11925
1.10229
1.10251
1.10299
1.10389
1.10507
1.10647
1.10808
1.10994
1.11205
1.11431
1.11627
1.11755
1.11822
1.11847
1.11844
1.11823
1.11794
1.11769
1.11754
1.1174
1.0974
1.09758
1.09803
1.09895
1.1002
1.1017
1.10347
1.10555
1.10799
1.1107
1.11316
1.11487
1.11589
1.11642
1.11662
1.11659
1.11642
1.11625
1.11615
1.11603
1.09227
1.09241
1.09285
1.09381
1.09516
1.0968
1.09876
1.10113
1.10396
1.10723
1.1103
1.11254
1.11401
1.11488
1.11534
1.11551
1.11547
1.1154
1.11534
1.11524
1.08683
1.08694
1.08739
1.0884
1.08988
1.09171
1.09395
1.0967
1.10005
1.10399
1.10783
1.11075
1.11273
1.11399
1.11474
1.11513
1.11526
1.11529
1.11527
1.11518
1.08101
1.08107
1.08153
1.08261
1.08424
1.0863
1.08887
1.0921
1.09612
1.10096
1.10571
1.10939
1.11201
1.11377
1.1149
1.11555
1.11588
1.11602
1.11605
1.11598
1.07459
1.07465
1.07511
1.07626
1.07806
1.08039
1.08337
1.08718
1.09198
1.09785
1.10377
1.10848
1.11186
1.11423
1.11586
1.1169
1.1175
1.11779
1.11786
1.1178
1.06734
1.06738
1.06788
1.06912
1.07116
1.07388
1.07741
1.08201
1.08788
1.09511
1.10242
1.10826
1.11255
1.11564
1.11784
1.11933
1.12025
1.1207
1.12082
1.12075
1.0589
1.05893
1.05949
1.06087
1.0632
1.06638
1.07061
1.07616
1.08332
1.09219
1.10123
1.10852
1.11394
1.11791
1.12081
1.12283
1.12414
1.12478
1.12494
1.12485
1.04868
1.04871
1.04937
1.051
1.05377
1.05764
1.06283
1.0697
1.07855
1.08949
1.10059
1.10955
1.11625
1.1212
1.12489
1.12751
1.12922
1.13003
1.13023
1.13013
1.03609
1.03612
1.03694
1.03896
1.0424
1.04723
1.05372
1.0623
1.0733
1.08679
1.10038
1.11133
1.11953
1.12562
1.1302
1.13347
1.13559
1.13659
1.13682
1.13669
1.02038
1.02042
1.02147
1.02408
1.02849
1.03469
1.04297
1.05383
1.06758
1.08421
1.10077
1.11401
1.12393
1.13133
1.13688
1.14088
1.14345
1.14463
1.14489
1.14475
1.00046
1.00052
1.00194
1.00546
1.01131
1.01945
1.03023
1.04413
1.06139
1.08185
1.10187
1.11774
1.12959
1.13846
1.14514
1.14996
1.15302
1.15439
1.15467
1.15451
0.974571
0.974682
0.976744
0.981702
0.989816
1.00083
1.01514
1.03313
1.05482
1.07985
1.10385
1.12266
1.13667
1.14718
1.15511
1.16088
1.16446
1.166
1.1663
1.1661
0.939659
0.939909
0.94325
0.950871
0.962776
0.978261
0.997625
1.02099
1.04814
1.07849
1.10694
1.12894
1.14527
1.15757
1.16693
1.17372
1.1778
1.17949
1.17978
1.17954
0.889991
0.891117
0.89779
0.910858
0.929322
0.951694
0.97803
1.0082
1.04181
1.0781
1.11131
1.13667
1.15545
1.16966
1.18052
1.18834
1.19294
1.19475
1.19499
1.1947
0.816783
0.824325
0.839681
0.862832
0.89099
0.922535
0.957412
0.995446
1.03623
1.07905
1.11747
1.14662
1.16825
1.18473
1.19742
1.20651
1.21183
1.21394
1.21425
1.21402
0.73853
0.755887
0.780635
0.81426
0.852466
0.893324
0.936842
0.982961
1.0314
1.08156
1.12633
1.1604
1.18586
1.20538
1.22047
1.23149
1.23788
1.2403
1.24078
1.24073
0.674099
0.694299
0.726888
0.769134
0.816019
0.86557
0.917391
0.971406
1.02731
1.08456
1.13536
1.17394
1.20278
1.22486
1.2418
1.25394
1.26121
1.26436
1.26481
1.26484
0.62169
0.643666
0.681429
0.729768
0.78343
0.840156
0.89926
0.960487
1.02339
1.08735
1.14374
1.18634
1.218
1.24205
1.2604
1.27376
1.28219
1.28532
1.28588
1.28599
0.578346
0.601394
0.642652
0.695725
0.75476
0.817354
0.882676
0.950278
1.01953
1.08966
1.15114
1.19726
1.23131
1.25703
1.27666
1.29093
1.2999
1.30347
1.30423
1.30437
0.541417
0.565104
0.609042
0.665777
0.729206
0.79675
0.867445
0.940683
1.01568
1.09143
1.15751
1.20675
1.24281
1.26987
1.29037
1.30525
1.31463
1.31862
1.3196
1.31976
0.508875
0.533003
0.579004
0.638783
0.70591
0.777722
0.853147
0.931444
1.01166
1.09259
1.16291
1.21494
1.25274
1.28087
1.30203
1.31736
1.32699
1.3313
1.3324
1.33255
0.479238
0.503777
0.551477
0.613841
0.684171
0.759712
0.839358
0.922243
1.00729
1.09307
1.16738
1.22203
1.2614
1.29045
1.31209
1.3277
1.33748
1.34194
1.34307
1.34317
0.451609
0.476522
0.525771
0.590336
0.663476
0.742319
0.825748
0.912824
1.00236
1.09276
1.17095
1.22816
1.26905
1.29894
1.32102
1.33681
1.34665
1.35118
1.35239
1.35246
0.425254
0.450598
0.501242
0.567803
0.643456
0.725244
0.812087
0.903007
0.996758
1.0916
1.17364
1.23345
1.27593
1.30671
1.32925
1.34523
1.3551
1.35959
1.36086
1.36096
0.399904
0.425683
0.477432
0.545934
0.623842
0.708287
0.79822
0.892672
0.990376
1.08952
1.17545
1.238
1.28221
1.31401
1.33708
1.35329
1.3632
1.36764
1.36883
1.36888
0.375194
0.401554
0.454335
0.524544
0.604474
0.691312
0.784051
0.881745
0.983152
1.08648
1.17636
1.24186
1.28801
1.32099
1.34472
1.36123
1.3712
1.37558
1.37662
1.3766
0.351044
0.377868
0.431798
0.503519
0.585272
0.674262
0.769534
0.870192
0.975057
1.08243
1.17636
1.24505
1.29339
1.32774
1.35226
1.36912
1.37911
1.38336
1.38428
1.38417
0.32738
0.354766
0.409684
0.482802
0.566209
0.657125
0.754668
0.858014
0.966082
1.07734
1.17537
1.2475
1.29833
1.3343
1.35973
1.37696
1.38691
1.39095
1.39171
1.39153
0.304115
0.332113
0.387981
0.462392
0.547279
0.639918
0.739489
0.845247
0.956242
1.07117
1.17329
1.2491
1.30281
1.34071
1.3672
1.38478
1.39459
1.39832
1.3989
1.39866
0.281268
0.309938
0.366734
0.442319
0.528532
0.622688
0.724052
0.831946
0.945572
1.0639
1.17004
1.24976
1.30673
1.34697
1.37473
1.3926
1.40207
1.40536
1.40573
1.40545
0.259011
0.288307
0.345985
0.422625
0.510019
0.605512
0.708431
0.818194
0.934142
1.05556
1.16557
1.24932
1.30994
1.35306
1.38249
1.40061
1.40938
1.41197
1.41209
1.41178
0.237377
0.267268
0.325767
0.403372
0.491804
0.588456
0.692721
0.804079
0.922043
1.04621
1.15983
1.24762
1.31222
1.35885
1.39066
1.40923
1.4168
1.41813
1.41788
1.41759
0.216311
0.246866
0.306123
0.384602
0.473958
0.571608
0.677015
0.789714
0.909379
1.03591
1.15277
1.24451
1.31329
1.36403
1.39928
1.41919
1.42533
1.42434
1.42308
1.42301
0.195989
0.227128
0.287117
0.366386
0.456543
0.555053
0.661412
0.775212
0.896272
1.02477
1.14443
1.23987
1.31284
1.36806
1.40791
1.43108
1.43708
1.43312
1.4291
1.42816
0.176324
0.208067
0.268732
0.348699
0.43953
0.538745
0.645854
0.760512
0.882652
1.01272
1.13467
1.23344
1.31053
1.3702
1.41544
1.44436
1.4539
1.45025
1.43986
1.4231
0.157393
0.189692
0.250847
0.33135
0.422622
0.522343
0.629916
0.745117
0.867962
0.999108
1.1228
1.22435
1.30571
1.36929
1.41929
1.45521
1.4693
1.45963
1.44218
1.42529
0.139371
0.17187
0.23365
0.314578
0.406122
0.5062
0.613829
0.729364
0.852528
0.984215
1.10899
1.21227
1.29783
1.36434
1.41434
1.45026
1.46764
1.44887
1.37865
1.34569
0.122913
0.153427
0.217471
0.298979
0.390749
0.49081
0.597888
0.713479
0.836572
0.968185
1.09322
1.19702
1.28581
1.35532
1.39652
1.42433
1.42558
1.37541
1.30417
1.25979
0.0666464
0.13722
0.202597
0.283423
0.375046
0.474764
0.582033
0.697188
0.81974
0.950599
1.07496
1.17821
1.26628
1.34312
1.34762
1.36173
1.32546
1.26041
1.1835
1.14021
0.105141
0.121187
0.180891
0.261388
0.352213
0.451661
0.557928
0.672256
0.79356
0.922572
1.04426
1.14499
1.22456
1.30197
1.29845
1.19342
1.09036
1.01874
0.945234
0.979803
0.0737352
0.103105
0.163684
0.243592
0.334465
0.433574
0.540009
0.653614
0.773727
0.900742
1.01932
1.11592
1.18794
1.22896
1.18475
1.04105
0.913346
0.822157
0.721879
0.776067
0.049473
0.081803
0.143609
0.223809
0.314766
0.413723
0.52
0.632687
0.751297
0.875789
0.990519
1.0815
1.1439
1.15366
1.05091
0.876637
0.721212
0.600071
0.466527
0.502337
0.0257359
0.059612
0.122614
0.203662
0.294799
0.393619
0.499348
0.611002
0.727937
0.849593
0.959717
1.04445
1.09192
1.06962
0.913374
0.713201
0.51757
0.34087
0.143637
0.132598
0.00267574
0.0369271
0.100815
0.182605
0.273957
0.37259
0.477662
0.588183
0.703216
0.82171
0.926699
1.00432
1.03454
0.977572
0.782682
0.566431
0.340905
0.140634
-0.114977
-0.435623
-0.0206713
0.0135505
0.077945
0.160236
0.251818
0.350319
0.454811
0.564183
0.677238
0.792376
0.892082
0.961519
0.974215
0.866537
0.66938
0.453402
0.240277
0.0592872
-0.00935487
-0.103587
-0.0451889
-0.0109722
0.0536761
0.136217
0.227896
0.326179
0.430003
0.538065
0.64885
0.760167
0.85419
0.913782
0.901676
0.758574
0.569424
0.3734
0.204469
0.1082
0.0843195
0.0668295
-0.0712029
-0.0369632
0.0278446
0.110469
0.202071
0.299977
0.402902
0.509362
0.617476
0.724369
0.812261
0.859833
0.827989
0.658619
0.479108
0.309236
0.17778
0.137966
0.123321
0.121545
-0.0989229
-0.0645774
0.000394382
0.0830154
0.174408
0.271725
0.373512
0.478044
0.583062
0.684984
0.766027
0.8002
0.751605
0.565203
0.395292
0.243381
0.159156
0.143917
0.142298
0.142307
-0.128378
-0.0938127
-0.0286844
0.0538805
0.144918
0.24146
0.341855
0.444124
0.545626
0.642091
0.71536
0.739113
0.656561
0.479528
0.317037
0.191005
0.155462
0.152569
0.152465
0.153079
-0.159263
-0.124496
-0.0592593
0.0231764
0.113717
0.209272
0.308002
0.407667
0.505212
0.59577
0.660845
0.669149
0.562763
0.39913
0.253723
0.170058
0.161282
0.159942
0.159372
0.15976
-0.191005
-0.156167
-0.0910513
-0.00884889
0.0810281
0.175362
0.272151
0.368854
0.462029
0.546253
0.603479
0.594738
0.478586
0.327739
0.202422
0.182179
0.16652
0.164008
0.165116
0.165721
-0.223145
-0.188344
-0.123542
-0.0417764
0.0472354
0.140103
0.234642
0.328031
0.416434
0.494095
0.542954
0.521344
0.398677
0.265384
0.162678
0.131275
0.153671
0.167192
0.1709
0.171904
-0.254844
-0.220296
-0.155948
-0.0749553
0.0129218
0.104037
0.196011
0.285756
0.368983
0.439942
0.479557
0.449264
0.322622
0.219998
0.132032
0.149296
0.155701
0.162488
0.168027
0.170839
-0.28454
-0.250859
-0.187379
-0.107485
-0.0210753
0.0679491
0.157029
0.242832
0.320556
0.384397
0.417891
0.371933
0.247409
0.186489
0.16234
0.133527
0.133892
0.138113
0.141055
0.143562
-0.31086
-0.278168
-0.216705
-0.138207
-0.0537078
0.0329055
0.11874
0.200312
0.272436
0.328275
0.360221
0.286201
0.158923
0.160621
0.204845
0.129127
0.086773
0.0665914
0.0616966
0.0625318
-0.331822
-0.300966
-0.24186
-0.165697
-0.0836103
0.000147262
0.0824771
0.15957
0.226118
0.27336
0.302458
0.197259
0.017983
-0.0616854
-0.0211039
-0.0575962
-0.0964534
-0.116443
-0.110982
-0.103627
-0.345476
-0.31724
-0.261305
-0.188182
-0.109186
-0.0287725
0.0497781
0.122412
0.183327
0.222498
0.242734
0.10293
-0.142041
-0.561282
-0.663861
-0.393408
-0.317909
-0.299037
-0.28338
-0.278484
-0.349433
-0.325032
-0.273258
-0.203971
-0.128699
-0.0521236
0.0225172
0.0909019
0.146452
0.178637
0.182252
0.0373447
-0.145595
-0.268253
-0.320557
-0.275782
-0.334227
-0.316008
-0.31032
-0.30932
-0.342172
-0.322189
-0.275779
-0.211539
-0.140631
-0.0682077
0.00263895
0.0674349
0.118796
0.145527
0.133552
0.0528865
0.0653002
0.371812
0.578731
0.178433
-0.157162
-0.23568
-0.261302
-0.262981
-0.321801
-0.306109
-0.267403
-0.20976
-0.143966
-0.0757065
-0.00818072
0.0544407
0.104335
0.128569
0.109624
-0.00289207
-0.180503
-0.492713
-0.955438
-1.35143
-1.30349
-0.919527
-0.630278
-0.588286
-0.289746
-0.279089
-0.248467
-0.198801
-0.138451
-0.0741589
-0.00883436
0.0534941
0.106284
0.134835
0.112437
-0.0847873
-0.648457
-1.4683
-2.03358
-2.3604
-2.27926
-1.96714
-1.62067
-1.42108
-0.250576
-0.244331
-0.222485
-0.180664
-0.125688
-0.0643233
0.000495725
0.0654772
0.125542
0.172404
0.178942
0.0644161
-0.254935
-0.629821
-0.96757
-1.01245
-0.80595
-0.523575
-0.283138
-0.154703
-0.210741
-0.207318
-0.194225
-0.159785
-0.108623
-0.0485687
0.0177184
0.0889264
0.161694
0.237753
0.307341
0.40726
0.540224
0.832174
1.19884
1.59931
1.93848
2.16175
2.27773
2.32063
-0.176589
-0.174583
-0.167572
-0.140424
-0.0921326
-0.0306976
0.0390915
0.117474
0.20637
0.307002
0.437844
0.590297
0.935341
1.48988
2.12359
2.69422
3.12361
3.37851
3.48996
3.51993
-0.144569
-0.144031
-0.141842
-0.123103
-0.0780144
-0.0148466
0.0591718
0.142973
0.238627
0.350927
0.475695
0.616675
0.843969
1.34866
1.9125
2.41451
2.78359
2.9969
3.09474
3.123
-0.116109
-0.115532
-0.114973
-0.104159
-0.0644681
-0.000412801
0.0763638
0.162521
0.256989
0.365757
0.481189
0.605614
0.753093
1.09854
1.55377
1.93412
2.22219
2.39135
2.4675
2.48854
-0.0948615
-0.0934532
-0.0932798
-0.0873084
-0.050708
0.0149655
0.0938337
0.179347
0.270772
0.373549
0.476498
0.577119
0.674815
0.889937
1.20817
1.4843
1.68883
1.80648
1.85822
1.87109
-0.0833408
-0.0842611
-0.087151
-0.080545
-0.03759
0.0350467
0.116439
0.199135
0.284452
0.376011
0.461768
0.53541
0.606534
0.741737
0.952364
1.13556
1.27006
1.34744
1.38091
1.38883
-0.0506244
-0.0551186
-0.0610778
-0.0502301
-0.00280513
0.0716853
0.149251
0.224434
0.299493
0.376965
0.446576
0.500133
0.550267
0.634586
0.774648
0.892554
0.975616
1.02223
1.04104
1.04339
0.0480543
0.0425807
0.0378608
0.0473816
0.0845764
0.139959
0.199255
0.258469
0.318614
0.380714
0.434647
0.471241
0.501487
0.555585
0.647544
0.725153
0.77643
0.804048
0.814273
0.81489
0.194337
0.191379
0.188029
0.190666
0.205944
0.231084
0.263136
0.300002
0.34159
0.387593
0.427237
0.452553
0.472485
0.505922
0.564698
0.614554
0.646911
0.663712
0.670138
0.669869
0.324996
0.323874
0.321015
0.316244
0.312733
0.314553
0.323788
0.340802
0.365853
0.39771
0.427199
0.446973
0.459195
0.485946
0.524188
0.554438
0.573315
0.582667
0.585695
0.584926
0.405346
0.40486
0.401898
0.394008
0.38251
0.373191
0.370022
0.374634
0.387687
0.408754
0.432076
0.450643
0.464379
0.485923
0.511197
0.528131
0.537708
0.542268
0.543535
0.542491
0.44195
0.441523
0.438884
0.431589
0.420015
0.40855
0.400747
0.398961
0.404684
0.418625
0.438768
0.459096
0.477678
0.494166
0.508232
0.516957
0.522838
0.525775
0.526729
0.525653
0.453252
0.452815
0.450745
0.445353
0.436452
0.426647
0.418598
0.414555
0.416166
0.425481
0.442686
0.465655
0.489555
0.503727
0.508541
0.513417
0.517983
0.521435
0.522715
0.521408
0.453322
0.452897
0.451346
0.44771
0.441659
0.434405
0.4276
0.42299
0.422071
0.427208
0.441067
0.464419
0.489522
0.499588
0.499783
0.504145
0.512312
0.518665
0.520761
0.518906
0.449847
0.449454
0.448269
0.445753
0.44175
0.436574
0.431081
0.426373
0.423471
0.424017
0.431087
0.447569
0.468795
0.471993
0.472132
0.480955
0.492484
0.501707
0.505182
0.503474
0.446188
0.445845
0.444905
0.442942
0.44001
0.436225
0.431685
0.426792
0.421762
0.416454
0.411932
0.411504
0.41486
0.413561
0.420486
0.43776
0.45556
0.467867
0.471844
0.469933
0.443235
0.442974
0.44228
0.440698
0.438291
0.435153
0.431294
0.426288
0.419351
0.408012
0.388987
0.364371
0.336643
0.334181
0.355957
0.383435
0.404397
0.416108
0.418583
0.416872
0.440549
0.440402
0.440007
0.438935
0.436897
0.434449
0.431082
0.426642
0.419376
0.40396
0.371803
0.319503
0.269599
0.269071
0.303747
0.33371
0.349222
0.35623
0.358539
0.358691
0.436954
0.436921
0.436829
0.436373
0.435143
0.43365
0.431869
0.429195
0.423852
0.410354
0.37718
0.315183
0.25609
0.264403
0.296666
0.316775
0.324902
0.32698
0.32826
0.328355
0.431225
0.431362
0.431682
0.432012
0.432193
0.432196
0.432724
0.43322
0.432756
0.425989
0.403291
0.355642
0.31666
0.323046
0.334041
0.335497
0.332513
0.330021
0.329174
0.328701
0.421886
0.42218
0.422836
0.423834
0.425384
0.428101
0.432125
0.437757
0.444423
0.448551
0.444015
0.423975
0.409114
0.402101
0.386191
0.365602
0.351803
0.344712
0.343483
0.343765
0.406628
0.407172
0.408515
0.410884
0.414428
0.41998
0.428431
0.439876
0.454369
0.472118
0.485527
0.491452
0.494746
0.471587
0.436094
0.405808
0.384933
0.374998
0.371386
0.371051
0.38207
0.382973
0.385208
0.389152
0.395191
0.404272
0.417497
0.435568
0.458515
0.486471
0.512904
0.530267
0.537078
0.503049
0.461281
0.434518
0.417553
0.404678
0.398947
0.399093
0.34415
0.345503
0.348751
0.354669
0.363833
0.376788
0.394456
0.417693
0.445932
0.478504
0.506208
0.517307
0.514866
0.483334
0.460527
0.446848
0.443294
0.434497
0.428264
0.428516
0.288937
0.290578
0.294847
0.302954
0.315271
0.331948
0.352831
0.377588
0.402732
0.4291
0.455978
0.46244
0.445181
0.421635
0.424298
0.441223
0.44816
0.43901
0.432541
0.431296
0.214543
0.215843
0.22085
0.230808
0.245413
0.264001
0.284433
0.300872
0.311046
0.322498
0.350588
0.353995
0.33226
0.306404
0.34085
0.373223
0.384981
0.375952
0.371213
0.37003
0.123194
0.124538
0.128804
0.138399
0.151932
0.167977
0.181913
0.182502
0.162386
0.162611
0.19954
0.20973
0.174126
0.179579
0.214478
0.266832
0.266485
0.255814
0.249178
0.24671
0.0277285
0.0272695
0.0272141
0.028105
0.0289824
0.0321506
0.0347405
0.0272811
0.00396819
0.00414877
0.0356878
0.0579576
0.0618629
0.0420015
0.0448567
0.0303256
0.0451511
0.0534104
0.0528577
0.0521965
0.383196
0.561879
0.770601
0.949725
1.0939
1.20872
1.30441
1.3852
1.42126
1.3982
0.708562
0.836668
0.973746
1.09242
1.19287
1.27639
1.344
1.39186
1.41604
1.42792
0.940496
1.02797
1.12133
1.20408
1.27536
1.33502
1.38239
1.41697
1.4418
1.45957
1.10922
1.17091
1.23634
1.29618
1.34827
1.39247
1.42868
1.45748
1.48096
1.49913
1.23986
1.28514
1.33277
1.37833
1.4186
1.45367
1.48363
1.50847
1.52929
1.54705
1.34725
1.3813
1.42063
1.45736
1.491
1.52106
1.54728
1.56925
1.5874
1.60471
1.44169
1.4711
1.50594
1.5388
1.56938
1.59708
1.62126
1.64129
1.657
1.67407
1.53151
1.56117
1.59571
1.6282
1.65821
1.68514
1.70829
1.72698
1.7405
1.75754
1.62762
1.66102
1.69802
1.73191
1.76222
1.78863
1.81076
1.82818
1.84015
1.85757
1.74318
1.78099
1.81988
1.85435
1.88387
1.90875
1.92923
1.94521
1.95675
1.97483
1.8885
1.92716
1.96327
1.99406
2.01983
2.04201
2.06113
2.07671
2.08918
2.10719
2.06351
2.09538
2.12161
2.14407
2.16409
2.18286
2.20061
2.21712
2.2325
2.25058
2.25221
2.26951
2.28464
2.30091
2.31684
2.3314
2.34463
2.35857
2.37613
2.3963
2.43415
2.44362
2.45518
2.46602
2.47532
2.48492
2.49574
2.50712
2.5185
2.53386
2.64131
2.645
2.63007
2.61527
2.60902
2.61472
2.63321
2.66353
2.69571
2.72237
2.94765
2.81279
2.73617
2.69383
2.67642
2.68039
2.7078
2.76422
2.86685
3.09121
1.22721
1.22508
1.22059
1.21196
1.19973
1.18758
1.17734
1.16941
1.16375
1.16042
1.15998
1.16263
1.16765
1.17482
1.18416
1.19567
1.20829
1.21931
1.22542
1.22846
1.15168
1.15752
1.16386
1.16834
1.1708
1.17046
1.1677
1.16386
1.1603
1.15797
1.15773
1.15983
1.16341
1.16763
1.17139
1.17324
1.17227
1.16877
1.16359
1.15697
1.14329
1.14558
1.14898
1.15197
1.15403
1.15551
1.15624
1.15589
1.15481
1.15385
1.15392
1.15524
1.15696
1.15819
1.15832
1.15738
1.1558
1.15344
1.15015
1.14723
1.13782
1.13891
1.14073
1.14311
1.14512
1.14653
1.14752
1.14823
1.14857
1.14871
1.14908
1.14976
1.15025
1.15023
1.14974
1.14884
1.14733
1.14521
1.14309
1.1417
1.13267
1.13334
1.13444
1.13614
1.13791
1.13953
1.1408
1.14176
1.14258
1.14327
1.14386
1.14426
1.14432
1.14404
1.14339
1.14226
1.14077
1.13918
1.13783
1.13704
1.12778
1.12824
1.12902
1.13032
1.1318
1.1333
1.13474
1.13599
1.13704
1.13798
1.13873
1.13912
1.1391
1.13869
1.13787
1.13678
1.13558
1.13438
1.13342
1.1329
1.12305
1.12339
1.124
1.12507
1.12636
1.12772
1.12914
1.13054
1.13183
1.13297
1.13389
1.13436
1.13433
1.13387
1.13311
1.1322
1.13124
1.13029
1.12957
1.12918
1.11844
1.11871
1.1192
1.12012
1.12129
1.12258
1.12395
1.12539
1.12684
1.1282
1.12932
1.12991
1.12995
1.12959
1.129
1.12827
1.12748
1.12673
1.12617
1.12588
1.11389
1.1141
1.11451
1.11532
1.11642
1.11767
1.11903
1.1205
1.12206
1.12363
1.12498
1.12577
1.12599
1.12582
1.12541
1.12485
1.12422
1.12363
1.12321
1.12297
1.10932
1.10949
1.10984
1.11058
1.11164
1.11287
1.11425
1.11579
1.11747
1.11924
1.12087
1.12195
1.12244
1.1225
1.12228
1.12189
1.12142
1.12097
1.12064
1.12046
1.10467
1.1048
1.10511
1.10581
1.10687
1.10813
1.10958
1.11123
1.1131
1.11514
1.11711
1.11856
1.11934
1.11964
1.11963
1.11941
1.11908
1.11874
1.1185
1.11836
1.09988
1.09998
1.10025
1.10094
1.10203
1.10335
1.1049
1.10673
1.10884
1.11122
1.11363
1.11551
1.11664
1.11723
1.11745
1.11742
1.11723
1.11701
1.11684
1.11673
1.09487
1.09494
1.0952
1.0959
1.09704
1.09847
1.10016
1.10219
1.10462
1.10745
1.1104
1.1128
1.11435
1.11529
1.11578
1.11596
1.11593
1.11582
1.11572
1.11564
1.0896
1.08965
1.08989
1.0906
1.09181
1.09338
1.09527
1.09757
1.10036
1.10369
1.10731
1.11039
1.11252
1.11389
1.11469
1.11512
1.11526
1.11527
1.11524
1.11519
1.08398
1.08399
1.08422
1.08498
1.0863
1.08805
1.0902
1.09288
1.09621
1.10025
1.10471
1.10856
1.1113
1.11314
1.11432
1.115
1.11538
1.11553
1.11557
1.11554
1.0779
1.0779
1.07811
1.07889
1.08032
1.08225
1.0847
1.0878
1.09172
1.09658
1.10205
1.10691
1.11047
1.11297
1.11464
1.11571
1.11637
1.1167
1.11683
1.11682
1.07108
1.07105
1.0713
1.07213
1.0737
1.07589
1.07874
1.08244
1.08717
1.09309
1.09983
1.10589
1.11037
1.11358
1.11584
1.11742
1.11843
1.11899
1.1192
1.11921
1.0633
1.06325
1.06352
1.06443
1.06618
1.0687
1.07206
1.07648
1.08222
1.08946
1.09777
1.10528
1.11093
1.11505
1.11802
1.12015
1.12159
1.12242
1.12273
1.12275
1.05403
1.05397
1.05428
1.05534
1.05735
1.06031
1.06435
1.06973
1.07676
1.08567
1.0959
1.10518
1.11218
1.11736
1.12117
1.12396
1.1259
1.12701
1.12742
1.12744
1.04268
1.0426
1.043
1.04428
1.04672
1.05036
1.05535
1.06204
1.07078
1.08181
1.09438
1.10575
1.11433
1.12073
1.12546
1.12898
1.13144
1.13284
1.13334
1.13336
1.02859
1.02849
1.02903
1.03067
1.03372
1.03833
1.04464
1.05307
1.06401
1.07768
1.09311
1.10694
1.11739
1.12518
1.131
1.13532
1.13834
1.14004
1.14064
1.14066
1.01087
1.01076
1.0115
1.01368
1.01766
1.02365
1.03183
1.04263
1.05646
1.07344
1.09229
1.109
1.12156
1.13094
1.13797
1.14319
1.14684
1.14886
1.14955
1.14957
0.988136
0.988011
0.989122
0.992137
0.997516
1.00555
1.01639
1.03045
1.04804
1.06911
1.09202
1.11202
1.12696
1.13812
1.14651
1.15277
1.15713
1.15947
1.16024
1.16025
0.958045
0.957955
0.959722
0.964178
0.97188
0.983125
0.99789
1.01645
1.03889
1.06494
1.09252
1.1162
1.13376
1.14685
1.15676
1.1642
1.16931
1.17197
1.17281
1.17279
0.916465
0.916554
0.919742
0.92714
0.939113
0.955639
0.976235
1.00087
1.02937
1.06126
1.09405
1.1217
1.14203
1.15723
1.16879
1.17752
1.18336
1.18629
1.18717
1.18712
0.855798
0.857055
0.864787
0.87866
0.898387
0.923282
0.952049
0.984417
1.02009
1.0585
1.09685
1.12862
1.15183
1.1692
1.18245
1.19236
1.19896
1.20216
1.20299
1.2029
0.783635
0.78564
0.800211
0.824071
0.854624
0.889288
0.927005
0.967678
1.0111
1.05679
1.10173
1.1388
1.16603
1.18658
1.20227
1.21388
1.2216
1.22532
1.22635
1.22633
0.709599
0.716216
0.737655
0.771486
0.812061
0.856201
0.90281
0.951788
1.00303
1.05611
1.10784
1.15043
1.18179
1.20556
1.22386
1.23758
1.24653
1.25009
1.25111
1.25132
0.650027
0.658552
0.684727
0.725352
0.773534
0.825584
0.8801
0.936815
0.995488
1.05566
1.11386
1.16152
1.19651
1.22293
1.24309
1.25811
1.2677
1.27227
1.27403
1.27434
0.601755
0.610842
0.640451
0.685935
0.739911
0.798253
0.859378
0.922878
0.988309
1.05506
1.11924
1.17149
1.20959
1.23816
1.25991
1.27615
1.28704
1.29227
1.29433
1.29468
0.561441
0.57075
0.602661
0.651859
0.710432
0.7739
0.840613
0.910013
0.98147
1.05421
1.12386
1.1802
1.22099
1.25138
1.2744
1.29161
1.30318
1.30909
1.31138
1.31177
0.526491
0.535895
0.569519
0.621716
0.684035
0.751822
0.823358
0.897957
0.974841
1.05304
1.12769
1.18772
1.23085
1.26272
1.28669
1.30457
1.31668
1.32305
1.3255
1.32591
0.495248
0.504699
0.539646
0.59435
0.65982
0.731316
0.807094
0.886346
0.968166
1.0514
1.13071
1.19416
1.23939
1.27254
1.29727
1.3156
1.32803
1.33472
1.33726
1.33769
0.466484
0.475998
0.512074
0.568921
0.637103
0.711851
0.791389
0.874842
0.961198
1.04916
1.1329
1.19962
1.24685
1.28116
1.30654
1.32516
1.33776
1.34462
1.34712
1.34759
0.439407
0.44898
0.486074
0.544798
0.615419
0.693041
0.775933
0.863198
0.953751
1.04618
1.13422
1.20418
1.25342
1.28889
1.31489
1.33384
1.34655
1.35348
1.356
1.35631
0.413496
0.423185
0.461219
0.521554
0.594399
0.674601
0.760515
0.851249
0.945691
1.04236
1.13463
1.20791
1.25926
1.29599
1.32269
1.34198
1.35483
1.36173
1.36424
1.36451
0.388359
0.398246
0.437105
0.498999
0.573816
0.65634
0.744988
0.838883
0.936936
1.03765
1.13411
1.21084
1.26449
1.30265
1.33016
1.34987
1.36289
1.36978
1.37218
1.37247
0.36381
0.373937
0.413584
0.476976
0.553544
0.638152
0.729267
0.826044
0.927431
1.03199
1.13262
1.21297
1.26916
1.30895
1.33744
1.35767
1.37088
1.37773
1.38
1.38023
0.339796
0.350158
0.390635
0.455345
0.533517
0.620005
0.713331
0.812712
0.917164
1.02536
1.13012
1.21427
1.27327
1.31495
1.34459
1.3654
1.3788
1.38554
1.38764
1.38779
0.316222
0.326907
0.368118
0.434081
0.513712
0.601884
0.697187
0.798907
0.906151
1.01774
1.12653
1.21464
1.27677
1.32067
1.35165
1.37312
1.38664
1.39322
1.39509
1.39513
0.293134
0.304115
0.346097
0.413196
0.494148
0.583821
0.680883
0.784679
0.894427
1.00914
1.12179
1.21396
1.27956
1.32606
1.35867
1.38086
1.39439
1.40062
1.4022
1.40216
0.270513
0.281815
0.324594
0.392732
0.474869
0.565868
0.664476
0.770099
0.88206
0.999579
1.11588
1.21215
1.28151
1.33108
1.36573
1.38874
1.40207
1.40771
1.40891
1.40877
0.248554
0.260104
0.303644
0.372737
0.455937
0.548109
0.648044
0.755251
0.869133
0.98914
1.10879
1.20909
1.28243
1.33556
1.37287
1.39703
1.40991
1.41449
1.4151
1.41486
0.22713
0.239032
0.283287
0.35325
0.437395
0.53059
0.631684
0.740223
0.855747
0.977915
1.10054
1.20467
1.28211
1.33926
1.38003
1.40614
1.41856
1.4213
1.42074
1.42034
0.206411
0.218634
0.263562
0.33433
0.41933
0.513402
0.615482
0.725143
0.842021
0.965983
1.09119
1.19883
1.28034
1.34178
1.38685
1.41631
1.42928
1.42971
1.42648
1.42496
0.186346
0.198871
0.244528
0.316034
0.401786
0.496618
0.599528
0.710096
0.828072
0.953491
1.08083
1.19151
1.27694
1.34265
1.39253
1.427
1.44314
1.44323
1.43595
1.42598
0.16702
0.17979
0.226085
0.298211
0.384551
0.479948
0.583472
0.694663
0.813428
0.939905
1.06889
1.18207
1.27131
1.34126
1.39585
1.43666
1.45933
1.46275
1.45348
1.44458
0.148491
0.161479
0.208234
0.280906
0.367642
0.463392
0.567339
0.678829
0.798054
0.925125
1.05521
1.17019
1.26279
1.33687
1.3943
1.43964
1.46543
1.47403
1.43762
1.38391
0.131032
0.144715
0.191084
0.264183
0.350949
0.446817
0.551085
0.662717
0.782018
0.909228
1.03975
1.15575
1.25043
1.32923
1.38598
1.42467
1.45156
1.44126
1.3841
1.31875
0.114329
0.12888
0.174823
0.248667
0.334808
0.430704
0.53449
0.64639
0.765468
0.89239
1.02256
1.13862
1.23317
1.31947
1.36955
1.42223
1.39477
1.35454
1.28482
1.21573
0.128187
0.146292
0.195067
0.273171
0.364249
0.463982
0.573157
0.688044
0.810214
0.940537
1.06429
1.1671
1.25327
1.34499
1.39438
1.31437
1.27011
1.20792
1.13471
1.08603
0.103679
0.120052
0.155811
0.224113
0.309797
0.405158
0.509074
0.620322
0.738557
0.86414
0.992268
1.10634
1.19748
1.27775
1.34944
1.35115
1.23075
1.14734
1.08457
1.00059
0.0833615
0.0990681
0.140539
0.210269
0.296216
0.39119
0.493912
0.604223
0.721428
0.845505
0.971757
1.08345
1.17158
1.23921
1.26659
1.19668
1.05623
0.959635
0.883758
0.793892
0.0626117
0.0751962
0.12114
0.192172
0.278317
0.373478
0.476135
0.586081
0.702324
0.824805
0.948109
1.05518
1.13612
1.18827
1.16695
1.03855
0.884847
0.765429
0.665972
0.52663
0.038623
0.0517416
0.0997499
0.171928
0.25842
0.353606
0.456134
0.565448
0.680527
0.801048
0.9209
1.02265
1.09576
1.12806
1.07082
0.887093
0.702238
0.544866
0.399223
0.199239
0.0156858
0.0284223
0.0776817
0.151042
0.238057
0.333206
0.435353
0.543786
0.657457
0.775659
0.891684
0.987577
1.05215
1.05481
0.946435
0.743959
0.526189
0.318146
0.133012
-0.280527
-0.00728388
0.00506419
0.0548243
0.129065
0.216507
0.31169
0.413447
0.520989
0.633142
0.748795
0.860678
0.950086
1.00407
0.972897
0.823013
0.617316
0.392926
0.172602
-0.0158666
-0.320486
-0.0311693
-0.0189751
0.0309587
0.105746
0.193492
0.288717
0.390124
0.496798
0.607379
0.720318
0.827824
0.910289
0.950906
0.901717
0.71198
0.514686
0.310575
0.1375
0.0642122
0.028261
-0.0564453
-0.0444147
0.00570922
0.0807833
0.16863
0.263735
0.364635
0.470212
0.578897
0.688649
0.791146
0.866024
0.892054
0.812601
0.613178
0.429074
0.260584
0.150222
0.113419
0.102123
-0.0833009
-0.0713361
-0.0210842
0.0541668
0.141985
0.2368
0.33698
0.4412
0.547617
0.653687
0.750499
0.81768
0.821417
0.708002
0.523586
0.353124
0.210594
0.152083
0.138862
0.133562
-0.111855
-0.100035
-0.0494852
0.0258943
0.113581
0.207929
0.307174
0.409743
0.51352
0.615463
0.705917
0.765054
0.742732
0.609364
0.43845
0.278666
0.175849
0.140948
0.146848
0.147318
-0.142007
-0.130266
-0.0794609
-0.00397625
0.0834781
0.177194
0.275263
0.375888
0.476644
0.573981
0.657694
0.706687
0.66969
0.516506
0.360575
0.218236
0.174124
0.161013
0.156749
0.156434
-0.173411
-0.161641
-0.110785
-0.0352529
0.0518363
0.144735
0.241379
0.339754
0.43709
0.529371
0.606012
0.643421
0.602176
0.435434
0.29122
0.189737
0.139609
0.156728
0.161196