/*--------------------------------*- C++ -*----------------------------------*\
  =========                 |
  \\      /  F ield         | OpenFOAM: The Open Source CFD Toolbox
   \\    /   O peration     | Website:  https://openfoam.org
    \\  /    A nd           | Version:  9
     \\/     M anipulation  |
\*---------------------------------------------------------------------------*/
FoamFile
{
    format      ascii;
    class       surfaceScalarField;
    location    "33";
    object      phi;
}
// * * * * * * * * * * * * * * * * * * * * * * * * * * * * * * * * * * * * * //

dimensions      [0 3 -1 0 0 0 0];

internalField   nonuniform List<scalar> 
17370
(
-0.0916071
0.0960062
0.284612
-0.0775893
0.0594124
0.364952
-0.043034
0.0316145
0.427588
-0.0223094
0.0162548
0.505306
-0.0116583
0.00878056
0.60228
-0.00656578
0.00508103
0.720542
-0.00385005
0.0029796
0.863777
-0.00222043
0.00165505
1.03602
-0.00113583
0.000723523
1.24292
-0.000317392
-7.50232e-05
1.49158
0.00046041
-0.000865265
1.4916
0.00126958
-0.00177811
1.2432
0.00233371
-0.00308284
1.03639
0.00394541
-0.00516852
0.86413
0.00664537
-0.00885015
0.721262
0.0117176
-0.0163012
0.603798
0.0223431
-0.0316345
0.508731
0.0430393
-0.0594083
0.432537
0.077587
-0.0960033
0.365192
0.0916186
0.197392
-0.127086
0.0880168
0.0390694
-0.364349
0.354023
-0.0714794
0.0818055
-0.446655
0.454245
-0.0791681
0.0715776
-0.521008
0.529105
-0.0637287
0.055631
-0.612985
0.620757
-0.0482427
0.0404699
-0.727158
0.733681
-0.0338541
0.0273307
-0.867579
0.872417
-0.0221308
0.0172932
-1.03857
1.04188
-0.0136158
0.0103023
-1.24471
1.2471
-0.00777216
0.00538378
-1.49284
1.49484
-0.00343109
0.00142837
-1.49269
1.4945
0.00038298
-0.0021935
-1.24411
1.24602
0.00416551
-0.00607961
-1.03761
1.0401
0.0084226
-0.0109106
-0.866191
0.869828
0.0141784
-0.0178158
-0.7246
0.729761
0.0226112
-0.0277726
-0.609069
0.615646
0.0342534
-0.0408307
-0.515125
0.522472
0.0485613
-0.0559079
-0.43988
0.44767
0.0639447
-0.0717351
-0.374714
0.377363
0.0792427
-0.0818917
-0.256909
0.224457
0.0715464
-0.0390943
-0.0687985
0.0591838
0.00961463
-0.0521241
0.0589613
-0.37483
0.367993
-0.0581177
0.054279
-0.453937
0.457776
-0.048793
0.0442341
-0.527604
0.532163
-0.0396842
0.0357897
-0.620786
0.624681
-0.0315821
0.0275989
-0.734646
0.738629
-0.0232629
0.0193989
-0.873942
0.877806
-0.0153802
0.0119444
-1.04334
1.04678
-0.00844574
0.00543103
-1.24863
1.25164
-0.00224398
-0.000718487
-1.49693
1.49989
0.00366175
-0.00679747
-1.49741
1.50055
0.00974255
-0.0131571
-1.25007
1.25348
0.0165135
-0.0204444
-1.04566
1.04959
0.024231
-0.0284851
-0.877153
0.881407
0.0323951
-0.0365234
-0.739003
0.743131
0.0403495
-0.0448328
-0.625991
0.630475
0.0493383
-0.0547727
-0.535034
0.540468
0.0585527
-0.0593271
-0.458096
0.458871
0.0523956
-0.0320333
-0.336795
0.316433
0.0096634
-0.0686833
0.0590199
-0.0533917
0.0492776
0.00411406
-0.0332631
0.043696
-0.358535
0.348102
-0.0473781
0.0467964
-0.459557
0.460138
-0.0438728
0.0406644
-0.536105
0.539313
-0.036991
0.0336393
-0.628362
0.631714
-0.030012
0.0267863
-0.742001
0.745227
-0.0233627
0.0202002
-0.881305
0.884467
-0.0166482
0.0133288
-1.0502
1.05352
-0.00966122
0.00628095
-1.25489
1.25827
-0.0025135
-0.00108463
-1.50323
1.50683
0.004657
-0.00834551
-1.50405
1.50773
0.0116215
-0.0151587
-1.25704
1.26058
0.0183532
-0.0217699
-1.0533
1.05671
0.0248177
-0.0281241
-0.885024
0.88833
0.0312464
-0.0347629
-0.746826
0.750343
0.0380164
-0.0415879
-0.634602
0.638174
0.0447104
-0.0475399
-0.544618
0.547447
0.0480256
-0.0442109
-0.457002
0.453187
0.0336173
-0.0163418
-0.297147
0.279871
0.00416734
-0.0531809
0.0490136
-0.0461046
0.0435467
0.00255798
-0.0230645
0.033425
-0.337497
0.327137
-0.0391698
0.0401268
-0.459878
0.458921
-0.038882
0.036557
-0.541958
0.544283
-0.033917
0.0313766
-0.634663
0.637204
-0.0284154
0.0255952
-0.748299
0.751119
-0.0224004
0.0194302
-0.887515
0.890485
-0.016122
0.0130213
-1.05667
1.05978
-0.00949897
0.00613267
-1.26164
1.26501
-0.00226296
-0.00149638
-1.51054
1.5143
0.00522172
-0.00898556
-1.51152
1.51528
0.0122122
-0.0155564
-1.26403
1.26738
0.0184857
-0.0216082
-1.05992
1.06304
0.024421
-0.0274558
-0.891526
0.894561
0.0301364
-0.0329489
-0.753539
0.756352
0.0353572
-0.0378611
-0.64115
0.643654
0.0400727
-0.0411725
-0.549304
0.550404
0.0400672
-0.0341088
-0.448097
0.442139
0.0235164
-0.0103244
-0.264731
0.251539
0.00262393
-0.0457832
0.0431592
-0.0414255
0.0396242
0.0018013
-0.0169511
0.0262431
-0.317255
0.307964
-0.0328492
0.0349808
-0.457341
0.45521
-0.0345605
0.0328767
-0.546288
0.547972
-0.0306647
0.0285524
-0.639483
0.641595
-0.0261383
0.0237941
-0.753702
0.756046
-0.0210303
0.0183334
-0.893337
0.896034
-0.0152006
0.0122118
-1.06279
1.06578
-0.00879603
0.0055275
-1.26829
1.27156
-0.00173684
-0.00197029
-1.51803
1.52174
0.00563313
-0.00929098
-1.51901
1.52267
0.0123826
-0.0155692
-1.27066
1.27385
0.0183346
-0.0212224
-1.06608
1.06897
0.0237117
-0.0262681
-0.897355
0.899911
0.0284345
-0.0306617
-0.758805
0.761032
0.032607
-0.0346422
-0.645897
0.647932
0.0361612
-0.036383
-0.551008
0.55123
0.0340255
-0.0271106
-0.435604
0.428689
0.0175112
-0.00740462
-0.240032
0.229926
0.00188167
-0.0409681
0.0390865
-0.0380727
0.0367223
0.00135043
-0.0129345
0.0209315
-0.299318
0.291321
-0.0277028
0.0306305
-0.452641
0.449713
-0.0308417
0.0297196
-0.549386
0.550508
-0.0277192
0.0257991
-0.64362
0.64554
-0.0236148
0.0215242
-0.758265
0.760356
-0.0190958
0.0167069
-0.898555
0.900944
-0.0138711
0.011087
-1.06863
1.07142
-0.00783249
0.00468454
-1.27474
1.27789
-0.00102684
-0.00253583
-1.52536
1.52892
0.00604483
-0.00954053
-1.52626
1.52976
0.0124702
-0.0154407
-1.27695
1.27992
0.0179428
-0.0204636
-1.07168
1.0742
0.0225804
-0.0247394
-0.902221
0.90438
0.0266043
-0.0285534
-0.763092
0.765041
0.0302645
-0.0320521
-0.649833
0.65162
0.0329349
-0.0324481
-0.551106
0.550619
0.0292001
-0.0220097
-0.421581
0.41439
0.0136212
-0.00567757
-0.221002
0.213058
0.00144838
-0.0374498
0.0360014
-0.0355413
0.0345038
0.00103753
-0.0100823
0.0168378
-0.283961
0.277205
-0.023349
0.0267438
-0.446518
0.443123
-0.0275515
0.0268868
-0.551375
0.55204
-0.0251547
0.0234066
-0.647393
0.649141
-0.0213967
0.019455
-0.762401
0.764343
-0.0171773
0.0149342
-0.903235
0.905478
-0.0122882
0.00969233
-1.07405
1.07664
-0.00664225
0.00366438
-1.28092
1.28389
-0.000181856
-0.0032109
-1.53238
1.53577
0.00653947
-0.00982235
-1.53316
1.53644
0.0125323
-0.0152273
-1.28278
1.28548
0.0174701
-0.0197216
-1.07658
1.07884
0.0216203
-0.0235563
-0.906417
0.908353
0.0252177
-0.0269412
-0.766847
0.76857
0.0284343
-0.0298794
-0.65327
0.654715
0.0302438
-0.0290496
-0.549797
0.548603
0.0252193
-0.0181627
-0.407239
0.400182
0.0109198
-0.00451657
-0.205955
0.199552
0.0011566
-0.0347174
0.0335608
-0.033592
0.0327883
0.000803699
-0.00794888
0.0136058
-0.271022
0.265365
-0.0196135
0.0231922
-0.439612
0.436034
-0.0244654
0.0240417
-0.552582
0.553006
-0.0225823
0.0209532
-0.650845
0.652474
-0.0190615
0.0172396
-0.766256
0.768078
-0.0151037
0.0129975
-0.907634
0.90974
-0.0105102
0.00807528
-1.0791
1.08154
-0.0052216
0.0024308
-1.28674
1.28953
0.000842717
-0.0040404
-1.53905
1.54225
0.00715688
-0.0101877
-1.53961
1.54264
0.0126487
-0.0150658
-1.28806
1.29048
0.0170632
-0.0190547
-1.08098
1.08298
0.0207282
-0.0224308
-0.910164
0.911866
0.0238959
-0.0254322
-0.770153
0.771689
0.0267514
-0.0278531
-0.655965
0.657067
0.0278881
-0.0260902
-0.547117
0.545319
0.0219327
-0.0152288
-0.393302
0.386598
0.00897015
-0.0036913
-0.193764
0.188485
0.000948724
-0.0325239
0.0315752
-0.0320816
0.0314588
0.000622827
-0.0062867
0.0109911
-0.260205
0.255501
-0.0163828
0.0199565
-0.432443
0.428869
-0.0215622
0.0213755
-0.553329
0.553516
-0.0201604
0.0186053
-0.654098
0.655653
-0.0167892
0.0150408
-0.769891
0.771639
-0.0129973
0.010989
-0.911744
0.913753
-0.00861873
0.00630056
-1.08384
1.08616
-0.00358899
0.000957209
-1.2922
1.29483
0.00209857
-0.00505049
-1.5453
1.54825
0.00790418
-0.0106623
-1.54554
1.5483
0.0128939
-0.0150752
-1.29281
1.29499
0.0168568
-0.0186145
-1.08487
1.08663
0.0200792
-0.0215712
-0.913453
0.914945
0.0228681
-0.0242415
-0.773105
0.774478
0.0254234
-0.0261492
-0.657978
0.658704
0.025829
-0.0235363
-0.543302
0.541009
0.0192217
-0.0129648
-0.380131
0.373874
0.00752565
-0.00308917
-0.18367
0.179234
0.000798169
-0.030716
0.0299179
-0.0309165
0.0304423
0.000474244
-0.00492265
0.00878575
-0.251235
0.247372
-0.0134939
0.0168972
-0.425371
0.421968
-0.0186989
0.018745
-0.553602
0.553556
-0.017793
0.0163445
-0.657201
0.65865
-0.0146161
0.0129246
-0.773385
0.775077
-0.0109267
0.00895908
-0.915682
0.91765
-0.00665243
0.00441782
-1.08836
1.0906
-0.00182693
-0.00066616
-1.29734
1.29983
0.00354202
-0.00629424
-1.55107
1.55382
0.00892207
-0.0114263
-1.55093
1.55344
0.0134225
-0.0153457
-1.29709
1.29901
0.0169033
-0.0184402
-1.08833
1.08986
0.0197253
-0.0210444
-0.916345
0.917664
0.0221895
-0.0233767
-0.7757
0.776887
0.0243538
-0.024686
-0.659209
0.659542
0.0240125
-0.0213224
-0.538549
0.535859
0.0169785
-0.0111976
-0.367878
0.362097
0.00643504
-0.0026429
-0.175156
0.171364
0.000688888
-0.0291891
0.0285002
-0.0300387
0.0296934
0.000345325
-0.0037484
0.0068515
-0.243906
0.240803
-0.0108432
0.0139378
-0.418723
0.415629
-0.0157638
0.0159532
-0.553463
0.553274
-0.0150988
0.0137478
-0.660103
0.661454
-0.0120609
0.0104079
-0.776769
0.778422
-0.00846771
0.00657278
-0.919503
0.921398
-0.00436499
0.00223569
-1.09269
1.09481
0.000219076
-0.00257854
-1.3022
1.30456
0.00527666
-0.00782578
-1.55645
1.559
0.0102214
-0.0124609
-1.55582
1.55806
0.0142087
-0.0158619
-1.30085
1.3025
0.0171852
-0.0184682
-1.09133
1.09261
0.0195294
-0.0206047
-0.918856
0.919932
0.0215397
-0.0225232
-0.777914
0.778898
0.0232511
-0.0233445
-0.659735
0.659829
0.0223152
-0.019361
-0.533074
0.53012
0.015096
-0.00979039
-0.35659
0.351284
0.00559162
-0.00230386
-0.167862
0.164574
0.000606939
-0.0278686
0.0272616
-0.0294113
0.0291829
0.000228403
-0.0026903
0.00508844
-0.238068
0.23567
-0.0083525
0.0110552
-0.412745
0.410042
-0.0128034
0.0130792
-0.553086
0.55281
-0.0122921
0.0110234
-0.662848
0.664116
-0.00937751
0.00775817
-0.780076
0.781696
-0.00585914
0.00400591
-0.923158
0.925012
-0.00185178
-0.000216277
-1.0968
1.09887
0.00259324
-0.00484085
-1.30678
1.30903
0.00736397
-0.00969625
-1.56139
1.56372
0.0118438
-0.0138093
-1.56017
1.56213
0.0152972
-0.0166585
-1.30406
1.30542
0.017714
-0.0187196
-1.09378
1.09478
0.0195433
-0.0203759
-0.920899
0.921731
0.0211091
-0.0218999
-0.779761
0.780552
0.0223945
-0.0222056
-0.659766
0.659577
0.0208643
-0.0176953
-0.527105
0.523936
0.0135437
-0.00867563
-0.346237
0.341369
0.00494411
-0.002053
-0.16152
0.158629
0.000550091
-0.0266999
0.0261498
-0.029015
0.0288998
0.000115142
-0.00167479
0.00338132
-0.233634
0.231927
-0.00588062
0.00810351
-0.407596
0.405373
-0.00968715
0.0100323
-0.552555
0.55221
-0.00937339
0.00823462
-0.665415
0.666554
-0.00665186
0.00502935
-0.783315
0.784938
-0.00308656
0.00118896
-0.926756
0.928653
0.000992912
-0.00305078
-1.10082
1.10287
0.0053657
-0.00751301
-1.31115
1.3133
0.00987895
-0.0120168
-1.56592
1.56805
0.0139261
-0.0156051
-1.56396
1.56564
0.0168358
-0.0179299
-1.30672
1.30782
0.0187655
-0.0195451
-1.09573
1.09651
0.0201659
-0.0207693
-0.922458
0.923061
0.0212554
-0.021718
-0.781137
0.7816
0.0218254
-0.0213391
-0.659168
0.658681
0.0196342
-0.0162646
-0.520719
0.517349
0.0122508
-0.00778737
-0.336754
0.332291
0.00444876
-0.00187149
-0.155937
0.153359
0.000513154
-0.0256391
0.025126
-0.0288479
0.0288459
1.97285e-06
-0.000680638
0.00170854
-0.230575
0.229547
-0.00341976
0.00506958
-0.403475
0.401825
-0.00631697
0.00656985
-0.551983
0.55173
-0.00590932
0.00480107
-0.66777
0.668878
-0.00321555
0.00157651
-0.78655
0.788189
0.000369876
-0.00224364
-0.930395
0.932269
0.00437556
-0.00638116
-1.10478
1.10678
0.008624
-0.0106882
-1.31531
1.31738
0.0129266
-0.0148922
-1.57005
1.57201
0.0165739
-0.0179525
-1.56717
1.56855
0.0188652
-0.019594
-1.3088
1.30952
0.0200705
-0.0204511
-1.09715
1.09753
0.0207171
-0.0209677
-0.923536
0.923787
0.0212144
-0.0214689
-0.781909
0.782163
0.0212775
-0.0204164
-0.657877
0.657016
0.0184586
-0.0150177
-0.514017
0.510576
0.0111871
-0.00708973
-0.328086
0.323988
0.00407398
-0.00174067
-0.150955
0.148622
0.000488568
-0.0246501
0.0241616
-0.0289069
0.0290353
-0.000128338
0.000362078
-3.81277e-05
-0.228873
0.228549
-0.000865191
0.00190543
-0.400537
0.399496
-0.00274918
0.00283964
-0.551695
0.551605
-0.00211697
0.000972564
-0.670144
0.671289
0.000641139
-0.00229994
-0.789773
0.791432
0.00425531
-0.00613621
-0.933947
0.935828
0.00828066
-0.0102912
-1.10863
1.11064
0.0125222
-0.0145362
-1.3193
1.32132
0.01665
-0.018424
-1.57382
1.5756
0.0198438
-0.0209245
-1.56978
1.57086
0.0215431
-0.0219199
-1.31014
1.31052
0.0220791
-0.0220951
-1.09779
1.09781
0.0220312
-0.0219453
-0.923917
0.923831
0.0218631
-0.0217319
-0.782099
0.781968
0.0212716
-0.0200426
-0.655868
0.654639
0.0177675
-0.0141641
-0.507188
0.503585
0.010434
-0.00660902
-0.320119
0.316294
0.00383391
-0.00167078
-0.146434
0.14427
0.000482436
-0.0237048
0.0232223
-0.0292378
0.0295005
-0.000262723
0.00141595
-0.00176285
-0.228586
0.228933
0.00173164
-0.0013654
-0.398846
0.39848
0.000973434
-0.00103901
-0.551778
0.551844
0.00175915
-0.00289548
-0.672587
0.673723
0.00454427
-0.00629013
-0.793038
0.794784
0.00838506
-0.0104012
-0.937559
0.939575
0.0126831
-0.0147973
-1.11253
1.11465
0.0171011
-0.0191302
-1.32322
1.32525
0.0211832
-0.0228062
-1.57721
1.57884
0.024
-0.0247732
-1.57176
1.57254
0.0250818
-0.0250956
-1.31079
1.3108
0.0249158
-0.0245926
-1.09769
1.09736
0.024213
-0.0237507
-0.923545
0.923083
0.0233131
-0.0227819
-0.781504
0.780973
0.0219235
-0.0201274
-0.653138
0.651342
0.0174618
-0.0136786
-0.500052
0.496269
0.0100175
-0.00637912
-0.312682
0.309044
0.00374316
-0.00165542
-0.142224
0.140137
0.000484969
-0.0227742
0.0222892
-0.0298368
0.0302465
-0.000409648
0.00248595
-0.00353634
-0.229628
0.230679
0.00435452
-0.00477543
-0.398545
0.398966
0.00503245
-0.00541762
-0.552313
0.552698
0.0062436
-0.00747233
-0.67506
0.676289
0.0092542
-0.0111638
-0.796475
0.798384
0.0134655
-0.0156703
-0.941453
0.943658
0.0181368
-0.0203782
-1.11664
1.11889
0.0227594
-0.0247938
-1.32715
1.32919
0.0267736
-0.0282372
-1.5803
1.58177
0.029166
-0.0295685
-1.57309
1.5735
0.029515
-0.0291102
-1.31066
1.31026
0.0285485
-0.0278088
-1.09684
1.0961
0.0270749
-0.026238
-0.922358
0.921521
0.0254736
-0.0244997
-0.780033
0.779059
0.0231037
-0.0207942
-0.649364
0.647055
0.0178206
-0.0138816
-0.49263
0.488691
0.0102055
-0.00658058
-0.305573
0.301948
0.00391212
-0.00174724
-0.138109
0.135944
0.000513327
-0.021833
0.0213197
-0.03074
0.031314
-0.000573999
0.00358045
-0.00529226
-0.232087
0.233799
0.00694911
-0.00814266
-0.399769
0.400963
0.00916063
-0.0100758
-0.553674
0.554589
0.0112996
-0.0128267
-0.677835
0.679362
0.014914
-0.0170861
-0.800244
0.802416
0.0196437
-0.0220529
-0.945709
0.948118
0.0247153
-0.0271064
-1.12099
1.12339
0.029608
-0.0316881
-1.33108
1.33316
0.0336185
-0.0349098
-1.58304
1.58433
0.0355605
-0.0355701
-1.57365
1.57366
0.0351272
-0.034276
-1.30966
1.3088
0.0332835
-0.0320612
-1.09509
1.09387
0.0308998
-0.0296362
-0.920364
0.9191
0.0284982
-0.0270347
-0.777625
0.776161
0.0252662
-0.0225512
-0.644691
0.641976
0.0192576
-0.0150439
-0.484902
0.480688
0.0111655
-0.0073087
-0.298411
0.294554
0.00439589
-0.00197446
-0.133767
0.131345
0.000578707
-0.0208231
0.0202444
-0.0319666
0.0327286
-0.00076194
0.00480168
-0.00722109
-0.235873
0.238293
0.00973885
-0.0117035
-0.402578
0.404543
0.0134801
-0.0149642
-0.556196
0.55768
0.016692
-0.0186361
-0.681314
0.683258
0.0211551
-0.0236908
-0.804544
0.80708
0.0266166
-0.0293464
-0.95038
0.95311
0.0323472
-0.0350246
-1.12568
1.12835
0.0377878
-0.0400297
-1.33515
1.33739
0.0419996
-0.0431708
-1.58545
1.58662
0.0435622
-0.0432025
-1.57342
1.57306
0.042335
-0.0409936
-1.30767
1.30633
0.0395311
-0.0377942
-1.09233
1.0906
0.0361883
-0.0344824
-0.917459
0.915753
0.0329692
-0.0310308
-0.774272
0.772333
0.0288178
-0.0255707
-0.63921
0.635963
0.0217986
-0.01711
-0.476578
0.471889
0.0128197
-0.00848679
-0.290702
0.286369
0.00513855
-0.0023121
-0.12885
0.126023
0.000675633
-0.0196689
0.0189933
-0.0335657
0.0345765
-0.00101081
0.00635851
-0.00963249
-0.241084
0.244358
0.0131577
-0.0159967
-0.407026
0.409865
0.0185737
-0.0206225
-0.559939
0.561988
0.02283
-0.0251885
-0.685663
0.688022
0.0282007
-0.0312226
-0.809587
0.812609
0.0347202
-0.0379783
-0.955766
0.959025
0.0415338
-0.0446571
-1.13099
1.13412
0.0478076
-0.0502718
-1.33956
1.34202
0.0523141
-0.0533742
-1.58761
1.58867
0.0534852
-0.0526874
-1.57243
1.57163
0.051364
-0.0494753
-1.30465
1.30276
0.0475157
-0.0452793
-1.08847
1.08623
0.0432247
-0.0410109
-0.913572
0.911358
0.0390233
-0.0364785
-0.769946
0.767401
0.03368
-0.0297323
-0.63263
0.628682
0.025334
-0.019989
-0.467273
0.461928
0.0150784
-0.0100375
-0.281971
0.27693
0.0060887
-0.00273808
-0.123085
0.119734
0.000798732
-0.0183167
0.0175179
-0.0356583
0.0370224
-0.0013641
0.00849509
-0.0128699
-0.248009
0.252384
0.0176198
-0.0215056
-0.413376
0.417262
0.0250471
-0.0278441
-0.565038
0.567835
0.0307174
-0.033655
-0.690942
0.69388
0.0373614
-0.0410641
-0.815642
0.819344
0.0453099
-0.0492211
-0.962251
0.966162
0.0534144
-0.0570061
-1.1372
1.14079
0.0604999
-0.0630994
-1.34437
1.34697
0.0650797
-0.0658623
-1.58947
1.59026
0.0655232
-0.064125
-1.57047
1.56908
0.0622212
-0.0596988
-1.3005
1.29798
0.05717
-0.0542762
-1.08348
1.08059
0.0516316
-0.0488295
-0.908546
0.905744
0.0462391
-0.0430202
-0.76434
0.761121
0.0395335
-0.0348214
-0.624637
0.619925
0.0297148
-0.023528
-0.456661
0.450474
0.0177663
-0.0117984
-0.271776
0.265808
0.00712985
-0.00319168
-0.116265
0.112327
0.000926468
-0.0167219
0.0157954
-0.0384456
0.0403416
-0.00189597
0.0115826
-0.0174375
-0.25712
0.262975
0.0237229
-0.0288925
-0.422123
0.427293
0.0336789
-0.0375081
-0.572011
0.57584
0.0414569
-0.0453741
-0.697604
0.701521
0.0500925
-0.0546389
-0.823084
0.82763
0.0597265
-0.0642989
-0.970022
0.974594
0.06906
-0.0729914
-1.14426
1.14819
0.0766356
-0.0791543
-1.34932
1.35184
0.0807774
-0.0809739
-1.59061
1.59081
0.0798479
-0.0775182
-1.56715
1.56482
0.0747481
-0.0713292
-1.29497
1.29155
0.0680727
-0.0645109
-1.07716
1.0736
0.0613235
-0.0578781
-0.902184
0.898738
0.0546867
-0.0508637
-0.757328
0.753505
0.0467458
-0.0412313
-0.615149
0.609634
0.0352019
-0.0278045
-0.444317
0.43692
0.0208868
-0.0137781
-0.259711
0.252602
0.00827724
-0.00368076
-0.10828
0.103683
0.00106002
-0.014881
0.013821
-0.0422575
0.0449867
-0.00272915
0.0162002
-0.0240695
-0.269146
0.277015
0.0322815
-0.0389636
-0.43395
0.440632
0.0451878
-0.0502944
-0.581544
0.586651
0.0557065
-0.060941
-0.706394
0.711629
0.0669444
-0.0725071
-0.83224
0.837802
0.0785033
-0.083691
-0.979068
0.984256
0.0888835
-0.0929883
-1.15188
1.15598
0.0965846
-0.0988256
-1.35395
1.35619
0.0998672
-0.0992675
-1.59041
1.58981
0.0971748
-0.0937307
-1.5618
1.55835
0.0899353
-0.0854028
-1.28748
1.28295
0.0811639
-0.0766379
-1.06934
1.06482
0.0727419
-0.0687384
-0.894548
0.890545
0.0650803
-0.0607373
-0.749047
0.744704
0.0559445
-0.0492639
-0.603942
0.597262
0.041817
-0.0327276
-0.429444
0.420354
0.0243877
-0.0159708
-0.245412
0.236995
0.00952903
-0.00419848
-0.0990066
0.093676
0.00119444
-0.0127864
0.011592
-0.0476529
0.051804
-0.0041511
0.023537
-0.034236
-0.285209
0.295908
0.044982
-0.0535812
-0.449686
0.458285
0.0614499
-0.0679152
-0.594165
0.600631
0.0749024
-0.081589
-0.717827
0.724513
0.088954
-0.0954712
-0.843389
0.849906
0.102216
-0.107842
-0.989247
0.994873
0.113261
-0.117362
-1.15973
1.16383
0.120708
-0.122506
-1.35791
1.35971
0.122828
-0.12137
-1.58854
1.58708
0.118328
-0.113853
-1.55422
1.54974
0.109136
-0.103606
-1.27777
1.27224
0.0984568
-0.0929426
-1.0595
1.05399
0.088194
-0.0833594
-0.885532
0.880697
0.0789492
-0.0735584
-0.73943
0.73404
0.0673023
-0.0586504
-0.589952
0.5813
0.0492678
-0.0382174
-0.41115
0.4001
0.0283128
-0.018423
-0.228632
0.218742
0.010895
-0.00473577
-0.0883309
0.0821717
0.00132309
-0.0104436
0.00912053
-0.0556798
0.0628549
-0.00717507
0.0367496
-0.0516925
-0.307455
0.322398
0.0660449
-0.0771956
-0.470647
0.481798
0.0867042
-0.0944091
-0.610032
0.617737
0.102782
-0.110544
-0.731844
0.739606
0.118688
-0.125592
-0.856164
0.863068
0.132514
-0.138105
-1.00007
1.00566
0.1433
-0.146994
-1.16737
1.17107
0.149702
-0.150718
-1.36081
1.36183
0.150037
-0.147526
-1.58483
1.58232
0.14344
-0.137939
-1.54456
1.53906
0.132352
-0.125935
-1.26613
1.25971
0.119977
-0.113541
-1.04773
1.0413
0.107854
-0.101741
-0.874531
0.868418
0.0958328
-0.0883828
-0.726974
0.719524
0.0798606
-0.0686935
-0.571471
0.560304
0.0572869
-0.0443287
-0.388984
0.376026
0.0327846
-0.0212373
-0.209106
0.197559
0.0124314
-0.00531052
-0.0761812
0.0690603
0.00144345
-0.00788441
0.00644096
-0.0696004
0.07344
-0.00383964
0.0273652
-0.0401912
-0.339865
0.352691
0.052834
-0.062704
-0.497982
0.507852
0.0715773
-0.0802965
-0.628655
0.637375
0.0902679
-0.0991873
-0.747026
0.755946
0.109243
-0.118297
-0.869134
0.878189
0.127956
-0.136525
-1.01039
1.01896
0.145402
-0.152888
-1.17379
1.18128
0.160101
-0.165537
-1.36184
1.36727
0.169813
-0.17175
-1.57879
1.58072
0.171216
-0.168615
-1.53265
1.53005
0.164671
-0.159042
-1.25255
1.24692
0.153168
-0.145523
-1.03398
1.02633
0.13803
-0.128906
-0.860551
0.851427
0.119473
-0.107664
-0.709632
0.697823
0.0947286
-0.0790828
-0.547939
0.532294
0.0642381
-0.0478098
-0.362824
0.346396
0.0337887
-0.0205117
-0.186344
0.173067
0.0111332
-0.00434573
-0.0626539
0.0558664
0.00103538
-0.00522116
0.00418578
-0.080396
0.078283
0.00211302
0.00561201
-0.0136081
-0.368309
0.376305
0.0229184
-0.0298303
-0.522274
0.529186
0.0369382
-0.0442262
-0.648083
0.655371
0.0530527
-0.0612614
-0.764587
0.772796
0.0701819
-0.0785249
-0.886722
0.895065
0.087505
-0.0952187
-1.02732
1.03504
0.103457
-0.110103
-1.1887
1.19535
0.116522
-0.121138
-1.37255
1.37717
0.124271
-0.125193
-1.58195
1.58288
0.123564
-0.11973
-1.52662
1.52278
0.114385
-0.107149
-1.24049
1.23326
0.0996536
-0.0903471
-1.01749
1.00819
0.0808496
-0.0694708
-0.839261
0.827882
0.0586969
-0.0472936
-0.68139
0.669987
0.0373047
-0.0268675
-0.514585
0.504147
0.0182267
-0.0106577
-0.329579
0.32201
0.00570092
-0.0021918
-0.16031
0.156801
0.000481375
0.000156193
-0.0494997
0.0488621
-0.000161009
-0.00302202
0.00318303
-0.0812711
0.0783094
0.00296164
-0.00301961
-0.00124187
-0.3871
0.391362
0.00723065
-0.0122756
-0.539944
0.544989
0.0177247
-0.0238523
-0.664239
0.670367
0.0312819
-0.0382606
-0.78024
0.787218
0.0461641
-0.0534584
-0.902718
0.910012
0.0611281
-0.0681103
-1.04262
1.0496
0.0753842
-0.0813567
-1.20162
1.20759
0.0866726
-0.0902497
-1.38113
1.38471
0.0925101
-0.0923689
-1.58296
1.58282
0.0896566
-0.0847027
-1.51801
1.51306
0.0784596
-0.0705154
-1.22542
1.21748
0.0621207
-0.0523461
-0.997913
0.988138
0.0428302
-0.0320584
-0.815839
0.805067
0.0226098
-0.0131679
-0.656314
0.646872
0.00581607
0.00120329
-0.491891
0.484872
-0.00554936
0.00765388
-0.312581
0.310476
-0.00765864
0.0062771
-0.151481
0.152863
-0.00438146
0.00222247
-0.0475115
0.0496704
-0.00072548
-0.00296829
0.00369377
-0.079771
0.0769932
0.00277778
-0.00606149
0.00417253
-0.39928
0.401169
-0.000657731
-0.00315858
-0.553072
0.556888
0.00793287
-0.013035
-0.677265
0.682367
0.0193257
-0.0252963
-0.793775
0.799745
0.0320562
-0.0383356
-0.916845
0.923125
0.0453295
-0.0512985
-1.05617
1.06214
0.0577049
-0.0625081
-1.21316
1.21796
0.0670473
-0.0699384
-1.38801
1.3909
0.0712978
-0.0701754
-1.58207
1.58095
0.0669562
-0.0616381
-1.5073
1.50198
0.0552354
-0.0469883
-1.20912
1.20088
0.0388734
-0.0296638
-0.977944
0.968734
0.0208106
-0.0113884
-0.793985
0.784563
0.00301236
0.00476199
-0.635499
0.627724
-0.0103081
0.0144821
-0.476232
0.472058
-0.016149
0.0153408
-0.304975
0.305783
-0.0130093
0.00951416
-0.152185
0.15568
-0.00629639
0.00301355
-0.0507993
0.0540821
-0.000927348
-0.00396855
0.0048959
-0.078178
0.07581
0.00236805
-0.00669093
0.00614673
-0.407405
0.407949
-0.00351942
0.000772033
-0.563759
0.566506
0.00324952
-0.00795786
-0.688139
0.692847
0.0132488
-0.0185324
-0.805213
0.810496
0.0244052
-0.0298756
-0.929025
0.934495
0.0358966
-0.041225
-1.06799
1.07331
0.0466694
-0.0510577
-1.22261
1.227
0.0549043
-0.0572273
-1.39337
1.3957
0.0580651
-0.0565882
-1.57955
1.57808
0.053196
-0.0477212
-1.49591
1.49043
0.0415733
-0.034008
-1.19262
1.18505
0.0266249
-0.0182772
-0.959394
0.951047
0.0106437
-0.00255276
-0.77492
0.766829
-0.00429294
0.0106187
-0.61855
0.612224
-0.0149247
0.0179447
-0.465356
0.462336
-0.0188537
0.0172128
-0.302643
0.304284
-0.0140765
0.0101724
-0.156852
0.160756
-0.00664412
0.00312152
-0.0561491
0.0596717
-0.00096664
-0.00540018
0.00636682
-0.0768557
0.0748783
0.0019774
-0.00624289
0.0060077
-0.413072
0.413307
-0.00452177
0.00214767
-0.572075
0.574449
0.00189111
-0.00599513
-0.697493
0.701597
0.0106373
-0.0153
-0.815173
0.819835
0.020576
-0.0254965
-0.939691
0.944611
0.0310221
-0.0357002
-1.07837
1.08305
0.0405941
-0.0445288
-1.23109
1.23503
0.0478893
-0.0498472
-1.39772
1.39968
0.0503819
-0.0491535
-1.57647
1.57524
0.0458319
-0.040846
-1.48458
1.4796
0.0351773
-0.0283086
-1.17747
1.1706
0.021947
-0.0145257
-0.942812
0.935391
0.00789912
-0.00110117
-0.758744
0.751946
-0.00466166
0.00996844
-0.60491
0.599603
-0.0135656
0.0160342
-0.456867
0.454398
-0.0165137
0.0150397
-0.302213
0.303687
-0.0124252
0.00892649
-0.162176
0.165675
-0.00575849
0.00272536
-0.0615593
0.0645924
-0.000849224
-0.00681157
0.0076608
-0.0759591
0.0744509
0.00150814
-0.00517768
0.00513016
-0.417431
0.417479
-0.00378515
0.00190472
-0.579611
0.581492
0.00194615
-0.00576353
-0.705817
0.709634
0.0103147
-0.0144139
-0.824261
0.82836
0.0191186
-0.0235274
-0.949573
0.953982
0.0287972
-0.0330655
-1.08778
1.09205
0.0374275
-0.0411413
-1.23877
1.24249
0.044618
-0.046414
-1.40164
1.40344
0.0470275
-0.045839
-1.57363
1.57244
0.0430941
-0.0383445
-1.47448
1.46973
0.0334059
-0.0274399
-1.16375
1.15779
0.0217297
-0.0154236
-0.928217
0.921911
0.00963532
-0.00358541
-0.744955
0.738905
-0.00117932
0.00584483
-0.593326
0.588661
-0.00908864
0.0111322
-0.449768
0.447724
-0.0117285
0.0109249
-0.302068
0.302872
-0.00898261
0.00633511
-0.166528
0.169176
-0.00405009
0.00194471
-0.0658479
0.0679532
-0.000631117
-0.00793962
0.00857074
-0.0755989
0.0744349
0.00116396
-0.00401863
0.00400053
-0.421047
0.421065
-0.00260648
0.000704119
-0.586403
0.588306
0.0029749
-0.00648167
-0.713534
0.71704
0.010484
-0.0145385
-0.83254
0.836595
0.0189641
-0.0235564
-0.958274
0.962866
0.0281378
-0.0322314
-1.09643
1.10052
0.0367126
-0.0401778
-1.24609
1.24955
0.0431824
-0.045397
-1.40515
1.40736
0.046234
-0.0454174
-1.57132
1.57051
0.0429825
-0.0390119
-1.46523
1.46126
0.0346361
-0.0293169
-1.15163
1.14631
0.0243218
-0.0187379
-0.915622
0.910038
0.0136727
-0.00853687
-0.732963
0.727827
0.00407817
6.81035e-05
-0.58324
0.579093
-0.0028956
0.00497332
-0.44358
0.441502
-0.00577146
0.00542208
-0.301063
0.301412
-0.00448592
0.0030943
-0.16904
0.170432
-0.00194821
0.000941349
-0.0683172
0.069324
-0.000332587
-0.00864082
0.00897341
-0.0757714
0.0748054
0.000966064
-0.00273128
0.00245928
-0.424439
0.424711
-0.00119496
-0.000859609
-0.592764
0.594818
0.00430269
-0.0077894
-0.720912
0.724399
0.0117374
-0.0154902
-0.840558
0.844311
0.0201057
-0.0239712
-0.966959
0.970824
0.0285493
-0.0324782
-1.10479
1.10872
0.0368524
-0.0405133
-1.25302
1.25668
0.0438082
-0.0458319
-1.40935
1.41138
0.0470519
-0.0467016
-1.56964
1.56929
0.0449927
-0.0414555
-1.45721
1.45367
0.0376361
-0.0328667
-1.14114
1.13637
0.02841
-0.0233209
-0.904314
0.899225
0.0188453
-0.0140948
-0.722471
0.71772
0.0100549
-0.00617333
-0.574358
0.570476
0.00325418
-0.00115697
-0.43762
0.435523
-7.52904e-05
0.000454982
-0.298899
0.298519
-0.00060033
0.000485313
-0.169257
0.169372
-0.00036397
0.000288475
-0.0687899
0.0688653
-0.000151879
-0.00880288
0.00895476
-0.0762178
0.075553
0.000664761
-0.00161106
0.000966279
-0.428026
0.42867
0.000118278
-0.00250978
-0.598465
0.600856
0.00567328
-0.00910267
-0.727965
0.731394
0.012966
-0.0169168
-0.848028
0.851979
0.0209964
-0.0250605
-0.974951
0.979015
0.0296317
-0.0333749
-1.1131
1.11684
0.0378517
-0.0414805
-1.26016
1.26379
0.0448526
-0.0474237
-1.41382
1.41639
0.0491686
-0.0491535
-1.56899
1.56898
0.0477513
-0.0449791
-1.45032
1.44755
0.041746
-0.037388
-1.13149
1.12713
0.0332212
-0.028708
-0.894069
0.889555
0.0242245
-0.0199318
-0.712697
0.708404
0.0161256
-0.0122975
-0.566217
0.562389
0.00945952
-0.00694597
-0.431547
0.429034
0.0052954
-0.00396789
-0.295558
0.29423
0.00292619
-0.00183686
-0.167354
0.166265
0.000899612
-0.000205086
-0.0675261
0.0668316
-4.03411e-05
-0.00850175
0.00854209
-0.077054
0.0765378
0.000516169
-0.000687264
0.000162831
-0.431861
0.432385
0.00169973
-0.00387542
-0.604468
0.606644
0.00721334
-0.0105652
-0.734656
0.738008
0.0143399
-0.0179566
-0.855691
0.859308
0.0222098
-0.0260017
-0.983136
0.986928
0.0305516
-0.034742
-1.12106
1.12525
0.0388834
-0.0428529
-1.26748
1.27145
0.0466613
-0.0493512
-1.41888
1.42157
0.0515035
-0.052302
-1.56919
1.56999
0.0513804
-0.0492547
-1.44465
1.44252
0.0462411
-0.042335
-1.12279
1.11888
0.0385608
-0.034195
-0.884626
0.880261
0.0300519
-0.0258378
-0.703571
0.699357
0.0221096
-0.0181891
-0.558063
0.554142
0.0150665
-0.012211
-0.425062
0.422207
0.00982701
-0.00767297
-0.290638
0.288484
0.00573479
-0.0036957
-0.163388
0.161349
0.00205039
-0.000745958
-0.0648706
0.0635662
0.000130928
-0.0079357
0.00780477
-0.0781368
0.0777977
0.000339104
0.000337249
-0.00114076
-0.43577
0.436574
0.00280134
-0.00527569
-0.610073
0.612548
0.0085635
-0.011793
-0.741204
0.744433
0.0156887
-0.0191985
-0.86297
0.86648
0.0233398
-0.0272811
-0.991234
0.995176
0.0317607
-0.0359348
-1.12932
1.13349
0.0403115
-0.044323
-1.27536
1.27937
0.0483364
-0.0517878
-1.42456
1.42801
0.0544112
-0.0555347
-1.57074
1.57186
0.055322
-0.0535314
-1.44028
1.43849
0.0510639
-0.0476545
-1.11488
1.11147
0.0439088
-0.0397106
-0.875576
0.871378
0.0356931
-0.031396
-0.694715
0.690418
0.0277348
-0.0236592
-0.550004
0.545929
0.0203359
-0.0168906
-0.417958
0.414513
0.0139942
-0.0110132
-0.284219
0.281238
0.00816143
-0.00528805
-0.157642
0.154769
0.00301496
-0.00117514
-0.0611082
0.0592684
0.000248989
-0.00713364
0.00688465
-0.0794262
0.0792078
0.000218405