/*--------------------------------*- C++ -*----------------------------------*\
  =========                 |
  \\      /  F ield         | OpenFOAM: The Open Source CFD Toolbox
   \\    /   O peration     | Website:  https://openfoam.org
    \\  /    A nd           | Version:  9
     \\/     M anipulation  |
\*---------------------------------------------------------------------------*/
FoamFile
{
    format      ascii;
    class       volScalarField;
    location    "25";
    object      p;
}
// * * * * * * * * * * * * * * * * * * * * * * * * * * * * * * * * * * * * * //

dimensions      [0 2 -2 0 0 0 0];

internalField   nonuniform List<scalar> 
8800
(
0.43147
0.383682
0.344991
0.315991
0.295119
0.280272
0.269649
0.262131
0.257254
0.255103
0.256241
0.260304
0.266841
0.276073
0.288791
0.306482
0.331229
0.365147
0.407677
0.466376
0.262728
0.270406
0.277875
0.281182
0.279673
0.274587
0.268086
0.261984
0.257213
0.254287
0.253886
0.256253
0.260618
0.266461
0.273151
0.279372
0.282972
0.282211
0.27676
0.268054
0.241145
0.247307
0.251435
0.254377
0.256421
0.257014
0.255887
0.253744
0.251659
0.250641
0.251457
0.253696
0.256373
0.258451
0.258977
0.257716
0.255324
0.251895
0.247319
0.243552
0.235366
0.238019
0.240778
0.243188
0.244825
0.245979
0.246699
0.246774
0.246407
0.246233
0.246824
0.247831
0.248524
0.248466
0.247755
0.246581
0.244697
0.24207
0.239635
0.23813
0.230031
0.231458
0.233251
0.235298
0.237093
0.238436
0.239408
0.24016
0.240692
0.241118
0.241579
0.241881
0.241805
0.241366
0.240536
0.239175
0.237385
0.235461
0.234113
0.233283
0.225023
0.225945
0.227214
0.228819
0.230483
0.232027
0.233308
0.234334
0.235211
0.235949
0.23641
0.236496
0.236233
0.235594
0.234533
0.233174
0.231709
0.230339
0.229467
0.228922
0.22022
0.22089
0.221893
0.223253
0.224719
0.226223
0.227689
0.228993
0.230096
0.231009
0.231563
0.231642
0.231268
0.23048
0.229423
0.228256
0.227056
0.225989
0.225345
0.224951
0.215596
0.216104
0.216943
0.218164
0.219524
0.220962
0.222449
0.223923
0.225273
0.226397
0.227074
0.22716
0.226747
0.226007
0.225088
0.22408
0.223053
0.222179
0.22168
0.221384
0.211126
0.21152
0.212243
0.213374
0.214695
0.216097
0.217567
0.219086
0.220583
0.221922
0.222771
0.222982
0.222713
0.222137
0.221377
0.220496
0.219594
0.218864
0.218471
0.218243
0.206773
0.207076
0.207713
0.208783
0.210071
0.211465
0.21296
0.21454
0.21617
0.217736
0.218816
0.219237
0.219176
0.218784
0.21817
0.217432
0.216653
0.21604
0.215733
0.21556
0.202518
0.202748
0.203328
0.204384
0.205683
0.207125
0.208724
0.210443
0.212235
0.214017
0.215427
0.216168
0.216333
0.216086
0.215598
0.214975
0.214282
0.213757
0.21352
0.213391
0.198363
0.19852
0.199045
0.200082
0.201383
0.202822
0.204425
0.206243
0.208282
0.210433
0.212202
0.213248
0.213713
0.213783
0.213555
0.213097
0.21253
0.212103
0.211937
0.211851
0.194399
0.194497
0.194954
0.195916
0.197173
0.198632
0.200323
0.202284
0.204527
0.207032
0.209304
0.210867
0.21175
0.212122
0.212161
0.211941
0.211586
0.211308
0.211214
0.21116
0.190481
0.190539
0.19092
0.191785
0.192987
0.194456
0.196244
0.198438
0.201086
0.20414
0.206995
0.209041
0.210336
0.211103
0.211462
0.211561
0.211484
0.211397
0.211374
0.211335
0.18622
0.186266
0.186574
0.187336
0.188482
0.189967
0.191876
0.194298
0.197337
0.201006
0.204613
0.20738
0.209306
0.210555
0.211364
0.211836
0.212068
0.212186
0.212222
0.212181
0.18123
0.181279
0.181585
0.182333
0.183522
0.185149
0.187318
0.190181
0.19385
0.198352
0.20286
0.2064
0.208919
0.210692
0.211922
0.212731
0.213247
0.213522
0.213593
0.213546
0.17524
0.175291
0.175653
0.176447
0.177761
0.179619
0.182155
0.185554
0.189999
0.195554
0.201197
0.2057
0.208994
0.211355
0.213033
0.214214
0.214999
0.215394
0.215488
0.215432
0.167967
0.16802
0.168455
0.169418
0.170979
0.173221
0.176319
0.180519
0.18602
0.1929
0.199916
0.205546
0.2097
0.212712
0.21486
0.216392
0.217407
0.217899
0.218022
0.217961
0.159173
0.159222
0.15976
0.160977
0.162949
0.165758
0.169634
0.174875
0.181731
0.190281
0.198984
0.20597
0.211109
0.214811
0.217563
0.219519
0.220734
0.221315
0.221475
0.221409
0.148608
0.148648
0.149304
0.150864
0.153399
0.156984
0.161909
0.168514
0.177086
0.187707
0.198461
0.20708
0.213441
0.218062
0.221432
0.223757
0.225226
0.225933
0.22614
0.226065
0.135903
0.135942
0.136765
0.138737
0.141998
0.146617
0.152906
0.161275
0.172031
0.185217
0.198452
0.209015
0.216811
0.222488
0.226587
0.229411
0.231182
0.23206
0.232315
0.232228
0.120362
0.120412
0.121464
0.123985
0.128229
0.134208
0.142303
0.152981
0.166514
0.182852
0.199051
0.211902
0.221389
0.228304
0.233267
0.236703
0.23887
0.239959
0.240262
0.240151
0.100829
0.100906
0.10233
0.105709
0.111271
0.119154
0.129739
0.143474
0.16054
0.180731
0.20043
0.215927
0.227346
0.235673
0.241663
0.24583
0.24848
0.249802
0.250155
0.250017
0.0755188
0.0756582
0.0777202
0.0825041
0.0901784
0.100821
0.114895
0.132703
0.154223
0.179032
0.202764
0.221246
0.234834
0.244765
0.251949
0.256998
0.26023
0.261817
0.262215
0.26204
0.0413895
0.0416998
0.0450823
0.0524727
0.0637132
0.0786625
0.0976958
0.120849
0.147835
0.178013
0.206257
0.228006
0.243964
0.25568
0.26424
0.27033
0.274247
0.276129
0.276561
0.276338
-0.00743299
-0.00617523
0.000689311
0.0135177
0.0310045
0.0526145
0.0784889
0.108384
0.141817
0.177995
0.211083
0.236275
0.254735
0.268381
0.278492
0.285823
0.290576
0.292808
0.293257
0.292966
-0.0800913
-0.0720787
-0.056228
-0.0334953
-0.00657885
0.0239781
0.0582314
0.0959254
0.136551
0.179322
0.217731
0.246782
0.268146
0.284131
0.296251
0.305299
0.311344
0.314299
0.314972
0.314786
-0.15802
-0.139715
-0.11415
-0.0810806
-0.0444561
-0.0047977
0.0379657
0.0836835
0.131964
0.18214
0.226978
0.261022
0.286311
0.305528
0.320429
0.331967
0.339826
0.343917
0.345204
0.345209
-0.221639
-0.200517
-0.167057
-0.125509
-0.080315
-0.0321674
0.0187679
0.0722781
0.127961
0.185195
0.236025
0.274564
0.303285
0.325247
0.342334
0.355483
0.364907
0.369901
0.370883
0.371017
-0.273448
-0.250425
-0.211892
-0.164322
-0.112415
-0.0572246
0.000839845
0.0614124
0.123957
0.18774
0.244003
0.286451
0.317969
0.341975
0.360614
0.374973
0.385432
0.39075
0.391925
0.392164
-0.31629
-0.29228
-0.250191
-0.197908
-0.14066
-0.0797117
-0.0155955
0.0511574
0.119848
0.189569
0.250678
0.296444
0.330191
0.355755
0.375506
0.390723
0.401489
0.407276
0.408833
0.409103
-0.352872
-0.328274
-0.283538
-0.227563
-0.165877
-0.100065
-0.0307344
0.0414528
0.11564
0.190714
0.256161
0.304798
0.340345
0.367035
0.38748
0.403118
0.414106
0.42015
0.421912
0.422165
-0.385129
-0.360169
-0.31338
-0.254301
-0.188912
-0.118898
-0.0449854
0.0320532
0.11123
0.191221
0.260668
0.311891
0.348973
0.37652
0.397366
0.413153
0.424184
0.430267
0.432139
0.432353
-0.4145
-0.389212
-0.340755
-0.279028
-0.210441
-0.136753
-0.0587634
0.022675
0.106456
0.19108
0.264327
0.318034
0.356564
0.384858
0.406043
0.421889
0.432945
0.439068
0.44103
0.441217
-0.441843
-0.416259
-0.366358
-0.302362
-0.230969
-0.154028
-0.0723799
0.0130738
0.101154
0.190205
0.267208
0.323381
0.36337
0.39247
0.41404
0.430035
0.441076
0.44709
0.449138
0.449372
-0.467864
-0.441926
-0.390645
-0.324737
-0.250823
-0.170994
-0.0860556
0.00307734
0.0951846
0.188512
0.269268
0.328043
0.369652
0.399697
0.421745
0.437933
0.449017
0.454933
0.456935
0.457172
-0.492855
-0.466536
-0.41416
-0.346404
-0.270264
-0.187849
-0.0999373
-0.00743061
0.0884508
0.185933
0.270541
0.332147
0.375587
0.406735
0.429412
0.445911
0.457083
0.462942
0.46481
0.464981
-0.517154
-0.490352
-0.436993
-0.367565
-0.289443
-0.204708
-0.114107
-0.0185165
0.0809014
0.182443
0.271017
0.335657
0.381184
0.413668
0.437145
0.454073
0.465384
0.471192
0.472897
0.472978
-0.540825
-0.513585
-0.459255
-0.388328
-0.308431
-0.221621
-0.128606
-0.0301985
0.072519
0.17798
0.270565
0.33851
0.386432
0.420511
0.44497
0.462435
0.473912
0.47964
0.481208
0.481165
-0.563947
-0.536226
-0.48102
-0.40874
-0.327254
-0.238597
-0.143423
-0.0424783
0.0632713
0.17245
0.269091
0.340611
0.391278
0.427246
0.452881
0.470976
0.482613
0.488203
0.489597
0.489447
-0.586611
-0.558358
-0.502281
-0.428798
-0.345906
-0.255606
-0.158525
-0.0553257
0.0531621
0.165835
0.266506
0.341813
0.395594
0.433821
0.460868
0.479672
0.491437
0.496786
0.497956
0.497722
-0.60882
-0.579974
-0.523055
-0.448473
-0.36433
-0.272602
-0.173853
-0.0686817
0.0422465
0.158129
0.262707
0.341953
0.399215
0.440156
0.468944
0.488522
0.500281
0.505266
0.506167
0.505859
-0.630403
-0.601006
-0.543295
-0.46773
-0.382482
-0.289509
-0.18933
-0.0824505
0.030604
0.149357
0.257616
0.340854
0.40192
0.446118
0.477159
0.497654
0.509141
0.513476
0.514033
0.513663
-0.651318
-0.621402
-0.56296
-0.486509
-0.400297
-0.306255
-0.204854
-0.0965416
0.0183195
0.139562
0.251192
0.338344
0.403434
0.451461
0.485543
0.507412
0.51829
0.521353
0.521352
0.520963
-0.671635
-0.641124
-0.582013
-0.504766
-0.417707
-0.322755
-0.220335
-0.110847
0.00549892
0.128834
0.243418
0.334285
0.403446
0.455762
0.493933
0.518332
0.528701
0.529401
0.528023
0.527725
-0.691179
-0.660153
-0.600399
-0.522436
-0.43465
-0.338928
-0.235676
-0.125251
-0.00772631
0.117294
0.234331
0.328571
0.401648
0.458383
0.501681
0.530614
0.542286
0.540307
0.535547
0.534227
-0.710037
-0.67848
-0.618139
-0.539544
-0.451161
-0.35482
-0.250936
-0.139813
-0.0214251
0.10487
0.223811
0.320949
0.39773
0.458502
0.507425
0.54323
0.560208
0.560128
0.549717
0.531073
-0.728144
-0.696106
-0.635355
-0.556279
-0.467526
-0.37076
-0.266526
-0.155017
-0.036149
0.0908953
0.211156
0.310538
0.39095
0.454892
0.508221
0.551603
0.574558
0.569051
0.554448
0.533395
-0.745341
-0.71318
-0.651869
-0.572393
-0.483455
-0.386404
-0.28222
-0.170532
-0.0515686
0.0756838
0.196561
0.297088
0.380849
0.446841
0.498916
0.543429
0.567388
0.55337
0.481818
0.445797
-0.760994
-0.730816
-0.667339
-0.587308
-0.498246
-0.401279
-0.297729
-0.186137
-0.0674632
0.0593838
0.180044
0.280487
0.366527
0.434715
0.476853
0.509417
0.517767
0.469818
0.396079
0.34954
-0.81601
-0.746059
-0.681462
-0.602306
-0.51331
-0.416756
-0.313115
-0.20209
-0.0841634
0.0416063
0.161122
0.260408
0.345111
0.42019
0.423828
0.439593
0.408387
0.344013
0.264552
0.219619
-0.776936
-0.761307
-0.70189
-0.623614
-0.535095
-0.438935
-0.336399
-0.226394
-0.11002
0.0134113
0.129601
0.225514
0.301622
0.374579
0.375301
0.267085
0.159521
0.0858527
0.0095952
0.0475629
-0.80709
-0.778389
-0.718369
-0.640327
-0.552068
-0.456285
-0.353671
-0.244514
-0.129527
-0.00839274
0.104299
0.19573
0.264115
0.303078
0.256734
0.107273
-0.0280756
-0.123856
-0.228806
-0.16972
-0.830219
-0.798455
-0.737443
-0.659054
-0.570848
-0.475249
-0.372884
-0.264761
-0.151459
-0.0331347
0.0753562
0.16095
0.219605
0.228036
0.119951
-0.0668094
-0.232957
-0.361778
-0.505112
-0.460312
-0.85264
-0.819359
-0.757288
-0.67812
-0.589787
-0.494365
-0.392628
-0.285654
-0.174213
-0.0590163
0.0445305
0.123652
0.168213
0.140964
-0.0240707
-0.239939
-0.451525
-0.643568
-0.854833
-0.852717
-0.874184
-0.840673
-0.777802
-0.697961
-0.609471
-0.514283
-0.413274
-0.307546
-0.198187
-0.0864406
0.0116327
0.083567
0.110688
0.0485866
-0.162162
-0.396365
-0.64214
-0.864763
-1.14247
-1.48427
-0.895881
-0.862518
-0.799225
-0.718948
-0.630294
-0.535291
-0.434934
-0.330464
-0.223258
-0.115133
-0.0226913
0.0411757
0.0509379
-0.0623944
-0.282629
-0.517766
-0.754242
-0.956666
-1.03535
-1.15082
-0.918502
-0.885312
-0.821842
-0.741387
-0.652689
-0.557954
-0.458331
-0.355273
-0.250512
-0.146466
-0.0601132
-0.00579389
-0.0205511
-0.177208
-0.388814
-0.604691
-0.79395
-0.90484
-0.929168
-0.95084
-0.942382
-0.909338
-0.845786
-0.76532
-0.676737
-0.582417
-0.483741
-0.382371
-0.28045
-0.181088
-0.101258
-0.0584463
-0.0973413
-0.282131
-0.484648
-0.675126
-0.821868
-0.874194
-0.889296
-0.891988
-0.967714
-0.934654
-0.871092
-0.790687
-0.702338
-0.608625
-0.51111
-0.411722
-0.313051
-0.218947
-0.146168
-0.117571
-0.174808
-0.38059
-0.573547
-0.744328
-0.852229
-0.864097
-0.866943
-0.867022
-0.994449
-0.961283
-0.89774
-0.817427
-0.729439
-0.636488
-0.54035
-0.44324
-0.348208
-0.259871
-0.194993
-0.178011
-0.267316
-0.471955
-0.65484
-0.799272
-0.843353
-0.853616
-0.855132
-0.854352
-1.02228
-0.988957
-0.925568
-0.845396
-0.757882
-0.665861
-0.571317
-0.476767
-0.385756
-0.303626
-0.247122
-0.243353
-0.370215
-0.559367
-0.723308
-0.835369
-0.841993
-0.845366
-0.847569
-0.847453
-1.05062
-1.01737
-0.954207
-0.87432
-0.787399
-0.696479
-0.603725
-0.512008
-0.425334
-0.349883
-0.301531
-0.318812
-0.468706
-0.644453
-0.78538
-0.827133
-0.848402
-0.846762
-0.845264
-0.844935
-1.07906
-1.04606
-0.983145
-0.903755
-0.817568
-0.727904
-0.637141
-0.548471
-0.466396
-0.397947
-0.357703
-0.391188
-0.569002
-0.732696
-0.832178
-0.861253
-0.85773
-0.85214
-0.848505
-0.846761
-1.10668
-1.07425
-1.01183
-0.933048
-0.847772
-0.759534
-0.670933
-0.585437
-0.508155
-0.446717
-0.415861
-0.465712
-0.66993
-0.841399
-0.895541
-0.890825
-0.890725
-0.886244
-0.88197
-0.878973
-1.13228
-1.10044
-1.03939
-0.961371
-0.877197
-0.790544
-0.704224
-0.621944
-0.549445
-0.494968
-0.473851
-0.538786
-0.764352
-1.00339
-1.06639
-1.00835
-0.999464
-0.990166
-0.982996
-0.977692
-1.15453
-1.12391
-1.06438
-0.987685
-0.904826
-0.81989
-0.735877
-0.656775
-0.588638
-0.541187
-0.527447
-0.60931
-0.839223
-1.15723
-1.62011
-1.38563
-1.23004
-1.19346
-1.17134
-1.15739
-1.1718
-1.14299
-1.08554
-1.01059
-0.929433
-0.846359
-0.764537
-0.688335
-0.623886
-0.582816
-0.574902
-0.663077
-0.85611
-0.967449
-1.1149
-1.15945
-1.24644
-1.26901
-1.26498
-1.26433
-1.1825
-1.15619
-1.10154
-1.02875
-0.94958
-0.868487
-0.788724
-0.714688
-0.65332
-0.615798
-0.61672
-0.702424
-0.806488
-0.541152
-0.0628193
-0.58227
-1.10294
-1.26125
-1.27301
-1.27732
-1.18477
-1.16198
-1.11088
-1.04083
-0.963886
-0.884821
-0.806779
-0.733969
-0.673855
-0.637884
-0.647689
-0.777151
-1.0618
-1.34545
-1.67195
-2.11926
-2.10685
-1.76823
-1.53273
-1.52574
-1.17768
-1.15878
-1.11222
-1.04572
-0.971262
-0.894118
-0.817187
-0.744414
-0.682323
-0.645052
-0.657776
-0.867621
-1.52734
-2.6354
-3.46722
-3.88933
-3.75624
-3.30726
-2.82507
-2.58648
-1.15979
-1.14466
-1.10458
-1.04279
-0.97113
-0.895659
-0.81896
-0.744514
-0.677436
-0.628284
-0.630056
-0.804079
-1.41468
-2.21387
-3.01158
-3.2899
-3.08264
-2.67374
-2.31053
-2.14612
-1.13227
-1.12151
-1.08827
-1.03236
-0.963739
-0.889585
-0.812282
-0.733898
-0.658742
-0.588902
-0.545483
-0.508549
-0.627988
-0.621723
-0.476801
-0.224536
0.111656
0.39655
0.576121
0.650482
-1.09816
-1.09149
-1.06582
-1.01628
-0.950667
-0.877443
-0.79855
-0.715727
-0.627845
-0.536843
-0.42685
-0.298311
-0.0180013
0.512275
1.14503
1.75248
2.18637
2.43067
2.53673
2.5655
-1.06155
-1.05776
-1.04076
-0.997576
-0.934798
-0.861849
-0.781485
-0.693909
-0.598634
-0.490538
-0.370076
-0.234043
0.0201194
0.61497
1.28648
1.87311
2.28629
2.51784
2.62004
2.65007
-1.02745
-1.02508
-1.01553
-0.980275
-0.920014
-0.846197
-0.764315
-0.675218
-0.57887
-0.468768
-0.359936
-0.24894
-0.106997
0.308574
0.814226
1.23509
1.53785
1.71194
1.79224
1.8171
-0.997449
-0.996907
-0.993465
-0.9654
-0.905931
-0.830378
-0.748469
-0.661731
-0.568707
-0.467333
-0.372321
-0.287383
-0.212347
0.0452886
0.40967
0.705851
0.924716
1.05801
1.12507
1.14507
-0.97076
-0.97276
-0.971879
-0.945316
-0.884189
-0.808227
-0.729267
-0.648174
-0.562815
-0.471626
-0.389346
-0.330582
-0.285764
-0.125627
0.120344
0.328049
0.479398
0.568306
0.609109
0.618744
-0.908526
-0.912406
-0.912036
-0.889072
-0.835518
-0.769424
-0.700667
-0.630235
-0.555609
-0.475305
-0.40206
-0.353492
-0.317961
-0.215885
-0.0507712
0.0827406
0.177256
0.232249
0.257235
0.263036
-0.801079
-0.803029
-0.802113
-0.787685
-0.754779
-0.710524
-0.660824
-0.606205
-0.545177
-0.476221
-0.411164
-0.363642
-0.324213
-0.253219
-0.14552
-0.0644679
-0.00928495
0.0229324
0.0355544
0.0364653
-0.690149
-0.690497
-0.689863
-0.684304
-0.670773
-0.648819
-0.618809
-0.580767
-0.533564
-0.475865
-0.415873
-0.364031
-0.317066
-0.269513
-0.212947
-0.162192
-0.126783
-0.105799
-0.0961184
-0.0960883
-0.61466
-0.614419
-0.61457
-0.614555
-0.610892
-0.601704
-0.585294
-0.559684
-0.523662
-0.475416
-0.423567
-0.373451
-0.328933
-0.29389
-0.262263
-0.230095
-0.204401
-0.186449
-0.178531
-0.179523
-0.576828
-0.576583
-0.576875
-0.578014
-0.577614
-0.573474
-0.563746
-0.545605
-0.51704
-0.477274
-0.434189
-0.398862
-0.367722
-0.344925
-0.323778
-0.29329
-0.267035
-0.250118
-0.243097
-0.244628
-0.565883
-0.565478
-0.565291
-0.565847
-0.565613
-0.56274
-0.555457
-0.541089
-0.516566
-0.480612
-0.444138
-0.425276
-0.431067
-0.429245
-0.39397
-0.357151
-0.327603
-0.310317
-0.303999
-0.305351
-0.57534
-0.57465
-0.573885
-0.573514
-0.572441
-0.568981
-0.561872
-0.548508
-0.52457
-0.487424
-0.449489
-0.434642
-0.452956
-0.462142
-0.426924
-0.389285
-0.36356
-0.350429
-0.345509
-0.346856
-0.603139
-0.602158
-0.60106
-0.600074
-0.598136
-0.594115
-0.586842
-0.573872
-0.549038
-0.506552
-0.457093
-0.423223
-0.425297
-0.429462
-0.409314
-0.385931
-0.372937
-0.366064
-0.364928
-0.364777
-0.647368
-0.646475
-0.645355
-0.644261
-0.642613
-0.639827
-0.635165
-0.626158
-0.605238
-0.561125
-0.49316
-0.422037
-0.39219
-0.395282
-0.383214
-0.36324
-0.345438
-0.334756
-0.330649
-0.332216
-0.705209
-0.704492
-0.703991
-0.703959
-0.704763
-0.707124
-0.711711
-0.71772
-0.719472
-0.69622
-0.611632
-0.493694
-0.427966
-0.413934
-0.390845
-0.355585
-0.317513
-0.292337
-0.290587
-0.29321
-0.770507
-0.770449
-0.771385
-0.774091
-0.780549
-0.79387
-0.818448
-0.860263
-0.921717
-0.963372
-0.864939
-0.68136
-0.563659
-0.517576
-0.45842
-0.382073
-0.319104
-0.287523
-0.285826
-0.286918
-0.831818
-0.832902
-0.836145
-0.843332
-0.858709
-0.888899
-0.945387
-1.04829
-1.21512
-1.37684
-1.2676
-0.983502
-0.796905
-0.698748
-0.577602
-0.447445
-0.346756
-0.307226
-0.314609
-0.319479
-0.872219
-0.874672
-0.880518
-0.892871
-0.918412
-0.967889
-1.06184
-1.23974
-1.54047
-1.85333
-1.75581
-1.33888
-1.07045
-0.916849
-0.748772
-0.592856
-0.494291
-0.467906
-0.470457
-0.476728
-0.873422
-0.877101
-0.88453
-0.900399
-0.933813
-0.997893
-1.12038
-1.35546
-1.76229
-2.19239
-2.16274
-1.63479
-1.32274
-1.14221
-0.968344
-0.838872
-0.773337
-0.75818
-0.753708
-0.756004
-0.822611
-0.826375
-0.834501
-0.851631
-0.886686
-0.95411
-1.0831
-1.33148
-1.7589
-2.20791
-2.19801
-1.74291
-1.45385
-1.29337
-1.18149
-1.12159
-1.07855
-1.05599
-1.04393
-1.04151
-0.721701
-0.724752
-0.731559
-0.746157
-0.776433
-0.834965
-0.947346
-1.164
-1.53053
-1.8797
-1.85767
-1.57375
-1.40794
-1.33365
-1.33085
-1.31863
-1.2749
-1.24377
-1.22559
-1.21937
-0.585725
-0.587717
-0.592049
-0.601897
-0.623113
-0.664815
-0.745439
-0.902017
-1.17269
-1.42005
-1.4017
-1.27871
-1.21695
-1.21423
-1.31283
-1.33327
-1.28366
-1.24407
-1.22543
-1.21809
-0.438543
-0.439201
-0.440832
-0.445488
-0.456757
-0.479975
-0.525852
-0.616934
-0.786827
-0.969041
-0.991273
-0.94906
-0.891844
-0.94288
-1.07681
-1.10873
-1.07967
-1.05749
-1.04518
-1.03936
-0.301766
-0.301395
-0.301041
-0.301651
-0.304948
-0.313095
-0.330438
-0.366639
-0.442155
-0.550356
-0.570294
-0.541733
-0.524244
-0.609125
-0.735174
-0.770833
-0.768706
-0.764882
-0.762819
-0.761003
-0.189817
-0.188917
-0.187555
-0.185997
-0.184643
-0.183602
-0.183255
-0.184506
-0.188953
-0.201914
-0.205368
-0.212554
-0.261321
-0.364003
-0.444652
-0.474103
-0.482507
-0.487462
-0.490799
-0.491438
-0.10779
-0.106798
-0.10529
-0.103254
-0.100356
-0.0958081
-0.0885106
-0.0765358
-0.0566315
-0.0252084
-0.00862403
-0.0398739
-0.127395
-0.201189
-0.246464
-0.26493
-0.275309
-0.281617
-0.285922
-0.287264
-0.0534962
-0.0526854
-0.0515278
-0.0500205
-0.0475767
-0.0432172
-0.0358054
-0.0236401
-0.0046615
0.020049
0.0290332
-0.000545647
-0.0549679
-0.098746
-0.125246
-0.1377
-0.144292
-0.148491
-0.151557
-0.152633
-0.0208572
-0.0203293
-0.0196858
-0.0191045
-0.0179008
-0.0153021
-0.0106583
-0.00313298
0.00793232
0.0204987
0.0230568
0.00651439
-0.0198321
-0.0414353
-0.0546326
-0.0609752
-0.0637747
-0.065619
-0.0672009
-0.0678157
-0.00278658
-0.0026876
-0.00239957
-0.00208461
-0.00174954
-0.00139548
-0.000781597
0.000284733
0.00192849
0.00409491
0.00554722
0.00372339
-0.000798986
-0.00548619
-0.00840325
-0.0100375
-0.0105266
-0.0106606
-0.0109695
-0.0113685
-0.59681
-0.40104
-0.174246
0.0170233
0.171467
0.295179
0.398915
0.48644
0.525703
0.503028
-0.241287
-0.102999
0.0435534
0.170373
0.277882
0.367572
0.440331
0.492052
0.518543
0.530181
0.00818549
0.101791
0.200871
0.288865
0.36479
0.428431
0.478988
0.515891
0.54215
0.559642
0.187081
0.252093
0.321505
0.384946
0.440061
0.48678
0.524984
0.555238
0.579553
0.597541
0.323952
0.37125
0.421554
0.469456
0.511648
0.54832
0.579527
0.605284
0.626616
0.644268
0.435356
0.470832
0.511687
0.549855
0.58471
0.615781
0.642785
0.665329
0.683807
0.70107
0.532288
0.562499
0.598378
0.632102
0.66344
0.691775
0.716442
0.736839
0.752777
0.769833
0.623615
0.653767
0.688941
0.721974
0.752442
0.77977
0.803231
0.822161
0.835839
0.852886
0.720644
0.754344
0.791723
0.825942
0.856541
0.883202
0.905538
0.923103
0.935191
0.952618
0.836784
0.87472
0.913855
0.948548
0.978239
1.00328
1.02389
1.03997
1.05158
1.06968
0.982464
1.02125
1.05745
1.08835
1.11423
1.1365
1.1557
1.17135
1.18387
1.20189
1.1576
1.18956
1.21588
1.23842
1.25851
1.27733
1.29513
1.31168
1.32708
1.34517
1.34644
1.36377
1.37896
1.39529
1.41125
1.42584
1.4391
1.45307
1.47065
1.49082
1.52852
1.53795
1.54953
1.56038
1.56969
1.57933
1.59018
1.60158
1.61297
1.62834
1.73566
1.73936
1.72444
1.70965
1.70343
1.70914
1.72764
1.75797
1.79017
1.81683
2.04201
1.90715
1.83055
1.78826
1.77085
1.77482
1.80225
1.85866
1.96129
2.18566
0.322067
0.319938
0.315451
0.306822
0.294592
0.282454
0.272209
0.264285
0.258615
0.255276
0.254795
0.257388
0.262365
0.269485
0.278794
0.290275
0.302883
0.313887
0.319986
0.323027
0.246527
0.252373
0.258712
0.263204
0.265668
0.265335
0.262584
0.258744
0.255181
0.252831
0.252549
0.254592
0.258119
0.262297
0.266016
0.267833
0.266846
0.263324
0.258129
0.251494
0.23813
0.240426
0.243831
0.24683
0.248906
0.250397
0.251137
0.25079
0.249708
0.248723
0.248748
0.250011
0.251675
0.25285
0.252925
0.251951
0.250334
0.247944
0.244644
0.241709
0.232651
0.233737
0.235577
0.237965
0.239997
0.241426
0.242435
0.243152
0.24349
0.243604
0.243928
0.244539
0.244958
0.244871
0.244329
0.243372
0.241812
0.239653
0.237513
0.236113
0.227494
0.228154
0.229275
0.231007
0.232815
0.234466
0.235763
0.236749
0.23756
0.238227
0.238763
0.239082
0.239058
0.238701
0.237965
0.23676
0.235202
0.233549
0.232156
0.231359
0.222602
0.223058
0.223862
0.225201
0.226732
0.228286
0.229771
0.231057
0.232128
0.233045
0.233733
0.234018
0.233889
0.233361
0.232434
0.231243
0.229941
0.228663
0.227655
0.22712
0.217882
0.218216
0.218852
0.21999
0.221362
0.222804
0.224292
0.225757
0.227085
0.228212
0.229049
0.229402
0.229224
0.228602
0.22769
0.22664
0.225546
0.224474
0.223678
0.223286
0.213349
0.213601
0.214119
0.215116
0.216391
0.217772
0.219219
0.220712
0.22219
0.223539
0.224565
0.225013
0.224882
0.224355
0.22359
0.222692
0.221736
0.220835
0.220201
0.219903
0.208935
0.209123
0.209557
0.21047
0.211698
0.213053
0.214483
0.215994
0.217569
0.219115
0.220366
0.22098
0.221011
0.220661
0.220067
0.219316
0.218477
0.217696
0.217177
0.21695
0.20464
0.204777
0.205144
0.205992
0.207189
0.208539
0.210022
0.211614
0.213272
0.214958
0.216455
0.217383
0.217698
0.217552
0.217093
0.216464
0.215758
0.21509
0.214671
0.214501
0.200423
0.200512
0.200826
0.201649
0.202867
0.204252
0.205776
0.207476
0.209357
0.21133
0.213157
0.214394
0.214934
0.214994
0.214733
0.214253
0.213644
0.213054
0.212717
0.212599
0.196359
0.196404
0.196664
0.197422
0.198592
0.199956
0.201479
0.203209
0.205191
0.20742
0.209651
0.21134
0.212318
0.212769
0.212827
0.212594
0.212183
0.211749
0.211514
0.211446
0.192452
0.192463
0.192677
0.193355
0.19446
0.195823
0.197425
0.199345
0.201621
0.204242
0.206984
0.209187
0.210582
0.211356
0.211684
0.211734
0.211573
0.211342
0.211226
0.211194
0.188423
0.188425
0.188593
0.189164
0.190161
0.191471
0.193094
0.195145
0.197693
0.200788
0.204167
0.207031
0.209016
0.210307
0.211069
0.211477
0.211678
0.211724
0.211745
0.211735
0.183831
0.183824
0.183986
0.184499
0.185456
0.186804
0.188568
0.19088
0.19385
0.197553
0.201731
0.20541
0.208044
0.20987
0.211105
0.211939
0.212438
0.212731
0.212858
0.212857
0.178382
0.178371
0.178554
0.179086
0.180093
0.181563
0.183562
0.186262
0.189821
0.194346
0.199523
0.204154
0.207568
0.210012
0.211741
0.212948
0.213773
0.21428
0.21448
0.214484
0.171779
0.171761
0.171979
0.172612
0.173751
0.175445
0.177822
0.181074
0.185412
0.190974
0.197403
0.20322
0.207548
0.2107
0.212959
0.214587
0.215736
0.216418
0.216672
0.216681
0.163763
0.163732
0.163997
0.164788
0.166195
0.168284
0.171222
0.175272
0.180666
0.187581
0.19556
0.202778
0.208183
0.212143
0.214952
0.216981
0.218464
0.219306
0.219617
0.219642
0.154117
0.154068
0.154393
0.155394
0.157187
0.15983
0.163547
0.168636
0.175385
0.183996
0.193894
0.202835
0.209514
0.214386
0.217946
0.220534
0.222269
0.223258
0.223642
0.223679
0.142519
0.142446
0.14285
0.144105
0.146418
0.149819
0.154584
0.161037
0.169535
0.180275
0.192517
0.203514
0.211739
0.217756
0.222106
0.22524
0.22733
0.228531
0.229018
0.229071
0.128476
0.128383
0.128917
0.130528
0.133477
0.137866
0.143996
0.152242
0.162975
0.176377
0.191474
0.204927
0.214968
0.222321
0.227646
0.23143
0.23397
0.235445
0.236047
0.236109
0.11105
0.11094
0.111687
0.113812
0.117588
0.123364
0.131324
0.141958
0.155601
0.172341
0.190883
0.207228
0.219383
0.228288
0.23473
0.239307
0.242399
0.244207
0.244931
0.244998
0.0888117
0.0886993
0.0898208
0.0927572
0.0978386
0.105516
0.116093
0.129981
0.147407
0.168275
0.190904
0.210583
0.225137
0.2358
0.243534
0.249052
0.252821
0.255028
0.255887
0.255953
0.0593986
0.0593261
0.0611343
0.065474
0.0727611
0.0835071
0.0979174
0.116253
0.138523
0.164396
0.191755
0.215172
0.232388
0.245011
0.254215
0.260843
0.26541
0.268064
0.269067
0.269125
0.0186426
0.0187645
0.0220956
0.0294118
0.0407818
0.0565843
0.0766671
0.100991
0.1293
0.161039
0.19368
0.221147
0.241214
0.255961
0.266808
0.274729
0.280253
0.283416
0.284545
0.284584
-0.0411908
-0.0398213
-0.0317589
-0.0180284
0.000981118
0.0248694
0.0529292
0.0848789
0.120327
0.158612
0.196894
0.228568
0.251579
0.268538
0.28115
0.290502
0.297127
0.300893
0.302154
0.302164
-0.112846
-0.110631
-0.0953314
-0.0714632
-0.0419351
-0.00854511
0.0282892
0.0684479
0.111618
0.157225
0.202202
0.239282
0.26639
0.286626
0.301924
0.313491
0.321862
0.326557
0.327891
0.328007
-0.186573
-0.179402
-0.156845
-0.123014
-0.0837396
-0.041133
0.00440932
0.0527805
0.103728
0.156732
0.208525
0.251143
0.28242
0.30601
0.324184
0.338232
0.348464
0.353626
0.355691
0.356181
-0.245322
-0.236339
-0.209048
-0.168483
-0.121673
-0.0712919
-0.01799
0.0379674
0.0962281
0.156236
0.214391
0.261997
0.296875
0.323188
0.343447
0.35909
0.370509
0.376886
0.379918
0.380585
-0.293061
-0.283534
-0.252788
-0.207332
-0.154799
-0.0982336
-0.0384569
0.0241214
0.0889607
0.155358
0.219302
0.271306
0.309168
0.337578
0.359383
0.376256
0.388693
0.395992
0.399373
0.4001
-0.33297
-0.323259
-0.290269
-0.241064
-0.183888
-0.122232
-0.0570107
0.0112767
0.0819347
0.15408
0.223218
0.279061
0.319407
0.349446
0.372346
0.389961
0.402966
0.4109
0.41448
0.415252
-0.367625
-0.357857
-0.323196
-0.270945
-0.20999
-0.144053
-0.0741141
-0.000808345
0.0750448
0.152396
0.226261
0.285544
0.328011
0.359325
0.382954
0.40096
0.414203
0.422401
0.42605
0.426858
-0.398604
-0.388829
-0.352908
-0.298101
-0.233965
-0.164339
-0.0902667
-0.0124883
0.0680868
0.150238
0.228537
0.291031
0.335429
0.367842
0.392019
0.410231
0.423534
0.431818
0.435427
0.436293
-0.427105
-0.4173
-0.380327
-0.323345
-0.256493
-0.183635
-0.105899
-0.0240768
0.0608352
0.147501
0.230042
0.295697
0.34199
0.375454
0.400163
0.418613
0.431976
0.440326
0.443965
0.444654
-0.453897
-0.444037
-0.406119
-0.347305
-0.278016
-0.202297
-0.121297
-0.035813
0.0531119
0.144054
0.230755
0.299572
0.347847
0.382474
0.407806
0.42654
0.439999
0.448333
0.451968
0.452552
-0.479452
-0.469541
-0.430767
-0.370352
-0.298855
-0.220593
-0.136666
-0.0478546
0.0447842
0.139796
0.230603
0.302725
0.353185
0.389158
0.415246
0.434369
0.447991
0.456319
0.459908
0.460477
-0.504203
-0.494134
-0.454549
-0.392674
-0.319237
-0.238706
-0.15214
-0.0603041
0.0357733
0.134662
0.229587
0.305223
0.358081
0.395603
0.422634
0.442289
0.456166
0.46453
0.467998
0.468554
-0.528304
-0.51801
-0.477716
-0.414449
-0.33928
-0.256724
-0.167787
-0.0732092
0.0260411
0.128632
0.227657
0.306954
0.362504
0.401845
0.430027
0.450358
0.464565
0.472975
0.476311
0.476814
-0.551805
-0.541303
-0.500333
-0.435776
-0.359051
-0.274681
-0.183629
-0.0865787
0.0155791
0.121643
0.224682
0.307832
0.366388
0.407869
0.43743
0.458579
0.473167
0.481595
0.484774
0.485177
-0.57484
-0.564047
-0.522378
-0.456675
-0.378563
-0.292581
-0.199648
-0.100394
0.00438665
0.113659
0.220601
0.307751
0.36963
0.413604
0.444822
0.466933
0.481934
0.490348
0.493312
0.493579
-0.597319
-0.586258
-0.543902
-0.477143
-0.39779
-0.31038
-0.215792
-0.114606
-0.0074997
0.104699
0.215367
0.306565
0.372068
0.41895
0.45218
0.475424
0.490809
0.499075
0.501755
0.501887
-0.619268
-0.607927
-0.564877
-0.497154
-0.416687
-0.328032
-0.232007
-0.129137
-0.0199984
0.0948095
0.208933
0.304145
0.3735
0.423743
0.459474
0.484109
0.499802
0.507692
0.509951
0.509936
-0.640537
-0.628974
-0.585252
-0.516657
-0.4352
-0.345453
-0.248207
-0.143896
-0.0330178
0.0840546
0.201289
0.300372
0.373714
0.427747
0.46663
0.493162
0.509099
0.516172
0.517721
0.517536
-0.661218
-0.649348
-0.604991
-0.535612
-0.453286
-0.362594
-0.264295
-0.158794
-0.0464621
0.0725314
0.192469
0.29515
0.372474
0.43062
0.473425
0.502801
0.519295
0.524866
0.524982
0.524496
-0.681175
-0.66901
-0.624066
-0.553966
-0.470858
-0.379368
-0.280188
-0.173707
-0.060211
0.0603301
0.182545
0.288423
0.369576
0.43192
0.479343
0.513007
0.531447
0.535335
0.532405
0.530537
-0.700442
-0.688017
-0.642425
-0.571665
-0.487878
-0.395707
-0.2958
-0.188551
-0.0741421
0.0476059
0.171627
0.280164
0.364872
0.431169
0.483443
0.522931
0.546106
0.551051
0.544357
0.53362
-0.718941
-0.706314
-0.660173
-0.588859
-0.504553
-0.411892
-0.31147
-0.203735
-0.0887242
0.0338188
0.159124
0.269711
0.357713
0.427684
0.484252
0.530582
0.561541
0.571517
0.565581
0.555007
-0.736639
-0.723801
-0.677316
-0.605507