/*--------------------------------*- C++ -*----------------------------------*\
  =========                 |
  \\      /  F ield         | OpenFOAM: The Open Source CFD Toolbox
   \\    /   O peration     | Website:  https://openfoam.org
    \\  /    A nd           | Version:  9
     \\/     M anipulation  |
\*---------------------------------------------------------------------------*/
FoamFile
{
    format      ascii;
    class       volScalarField;
    location    "31";
    object      p;
}
// * * * * * * * * * * * * * * * * * * * * * * * * * * * * * * * * * * * * * //

dimensions      [0 2 -2 0 0 0 0];

internalField   nonuniform List<scalar> 
8800
(
1.55105
1.50326
1.46456
1.43556
1.41469
1.39984
1.38921
1.38169
1.37682
1.37469
1.37586
1.37997
1.38654
1.3958
1.40854
1.42625
1.45101
1.48494
1.52748
1.58618
1.38231
1.38999
1.39745
1.40076
1.39924
1.39415
1.38765
1.38154
1.37677
1.37386
1.37349
1.37589
1.3803
1.38618
1.3929
1.39914
1.40276
1.40201
1.39657
1.38787
1.36074
1.36689
1.37102
1.37395
1.37599
1.37657
1.37544
1.3733
1.37122
1.37022
1.37108
1.37336
1.37608
1.37819
1.37875
1.37751
1.37514
1.37173
1.36716
1.3634
1.35497
1.35762
1.36036
1.36276
1.36438
1.36552
1.36623
1.36631
1.36594
1.36579
1.36643
1.36749
1.36823
1.36822
1.36754
1.3664
1.36455
1.36195
1.35953
1.35802
1.34964
1.35107
1.35284
1.35487
1.35664
1.35796
1.35892
1.35967
1.3602
1.36065
1.36117
1.36153
1.36151
1.36113
1.36035
1.35904
1.35729
1.3554
1.35407
1.35324
1.34464
1.34556
1.3468
1.34837
1.34999
1.3515
1.35276
1.35377
1.35464
1.35541
1.35593
1.35609
1.35591
1.35534
1.35436
1.35307
1.35167
1.35035
1.3495
1.34896
1.33984
1.34051
1.34147
1.34278
1.34419
1.34564
1.34705
1.34832
1.34942
1.35037
1.35099
1.35115
1.35088
1.35021
1.34926
1.34819
1.34708
1.34608
1.34547
1.34507
1.33519
1.3357
1.3365
1.33764
1.33892
1.34029
1.34171
1.34313
1.34446
1.34561
1.34637
1.34659
1.34632
1.34571
1.34493
1.34404
1.34314
1.34236
1.34189
1.34158
1.33063
1.33104
1.33171
1.33274
1.33396
1.33529
1.33671
1.3382
1.3397
1.34108
1.34203
1.34237
1.34223
1.34179
1.34117
1.34045
1.3397
1.33909
1.33873
1.33848
1.32611
1.32644
1.32702
1.32798
1.32917
1.33048
1.33192
1.33348
1.33512
1.33674
1.33794
1.3385
1.33859
1.33834
1.3379
1.33734
1.33673
1.33625
1.33597
1.33577
1.32156
1.32182
1.32235
1.32328
1.32445
1.3258
1.32731
1.32899
1.33082
1.33271
1.33423
1.33509
1.33542
1.33539
1.33511
1.3347
1.33422
1.33385
1.33363
1.33347
1.31691
1.31712
1.31761
1.31853
1.31974
1.32116
1.32279
1.32464
1.32672
1.32895
1.33087
1.3321
1.33271
1.3329
1.3328
1.33254
1.33219
1.3319
1.33174
1.33161
1.31213
1.3123
1.31276
1.31371
1.31498
1.3165
1.31826
1.32034
1.32276
1.32545
1.32785
1.32948
1.33043
1.33091
1.33105
1.33093
1.3307
1.3305
1.3304
1.33029
1.30717
1.3073
1.30775
1.30871
1.31007
1.3117
1.31365
1.31598
1.31875
1.32195
1.32498
1.32719
1.32861
1.32944
1.32984
1.32995
1.32986
1.32976
1.32969
1.32961
1.30195
1.30203
1.30248
1.3035
1.30498
1.30679
1.30901
1.31174
1.31507
1.31898
1.32274
1.32556
1.32746
1.32865
1.32936
1.32968
1.32976
1.32976
1.32975
1.32968
1.29641
1.29647
1.2969
1.29794
1.29952
1.30151
1.30401
1.30715
1.31107
1.31581
1.32051
1.32417
1.32677
1.3285
1.3296
1.33025
1.33057
1.33072
1.33076
1.3307
1.29028
1.29033
1.29076
1.29184
1.29356
1.2958
1.2987
1.30244
1.30717
1.31298
1.31882
1.32345
1.32677
1.32911
1.33074
1.33179
1.33242
1.33273
1.33281
1.33275
1.28324
1.28328
1.28375
1.2849
1.28681
1.28939
1.2928
1.29729
1.30305
1.31019
1.31742
1.32322
1.32749
1.33058
1.33279
1.33429
1.33526
1.33574
1.33587
1.3358
1.27482
1.27485
1.27539
1.2767
1.27891
1.28197
1.28608
1.29155
1.29861
1.30739
1.31634
1.32356
1.32893
1.33285
1.33574
1.33778
1.33911
1.33976
1.33992
1.33984
1.26456
1.26459
1.26524
1.26682
1.26951
1.27329
1.27838
1.28515
1.29391
1.30475
1.31576
1.32465
1.33128
1.33618
1.33981
1.34238
1.34408
1.34489
1.34509
1.34499
1.25193
1.25197
1.25278
1.25478
1.25815
1.2629
1.2693
1.27778
1.28869
1.30209
1.3156
1.32646
1.33458
1.3406
1.34506
1.34826
1.35034
1.35133
1.35156
1.35145
1.23619
1.23624
1.23731
1.2399
1.24424
1.25035
1.25855
1.26933
1.28301
1.29958
1.31605
1.32921
1.33902
1.3463
1.35175
1.35566
1.35818
1.35933
1.35959
1.35946
1.21619
1.21626
1.21771
1.22121
1.22701
1.23505
1.24576
1.25962
1.27684
1.29726
1.31722
1.333
1.34474
1.35348
1.36003
1.36475
1.36774
1.36908
1.36938
1.36921
1.19016
1.19028
1.19237
1.19733
1.20542
1.21638
1.23066
1.24864
1.27033
1.29534
1.3193
1.33803
1.35192
1.36229
1.37011
1.37574
1.37921
1.38074
1.38106
1.38087
1.15522
1.15548
1.15882
1.16645
1.17834
1.19383
1.21321
1.23659
1.26375
1.29408
1.32248
1.34442
1.36067
1.37286
1.38206
1.38867
1.39266
1.39439
1.39471
1.39447
1.1058
1.10693
1.1136
1.12661
1.14502
1.16741
1.19378
1.22397
1.25755
1.29381
1.32697
1.35231
1.37105
1.38516
1.39583
1.40347
1.40807
1.40997
1.41026
1.40997
1.03317
1.04074
1.0561
1.07907
1.10703
1.13849
1.17337
1.21139
1.25214
1.29492
1.33331
1.36245
1.38405
1.40042
1.4129
1.42192
1.42739
1.42969
1.43008
1.42986
0.955556
0.973032
0.997793
1.0311
1.06888
1.10953
1.15297
1.19907
1.24748
1.29762
1.3424
1.37646
1.40188
1.42124
1.43618
1.44727
1.45402
1.45673
1.4574
1.45737
0.891742
0.912105
0.944694
0.986496
1.03277
1.08196
1.13364
1.18761
1.2435
1.30077
1.35158
1.39013
1.41889
1.44085
1.45771
1.47008
1.47787
1.48139
1.48194
1.48199
0.839794
0.861951
0.899708
0.947513
1.00047
1.05672
1.1156
1.17674
1.23962
1.30358
1.35996
1.40249
1.43405
1.45801
1.4764
1.49005
1.49901
1.50259
1.50325
1.50337
0.796703
0.819945
0.861167
0.913754
0.972019
1.03406
1.09909
1.16654
1.23574
1.30582
1.36722
1.41323
1.44715
1.47277
1.4924
1.50688
1.51636
1.52041
1.52133
1.52149
0.759875
0.783749
0.827725
0.883976
0.946657
1.01359
1.08392
1.15694
1.23181
1.30744
1.37338
1.42244
1.45833
1.48527
1.50576
1.52087
1.5307
1.53518
1.53633
1.53651
0.727357
0.751668
0.797719
0.857083
0.9235
0.994682
1.06968
1.14768
1.22769
1.30843
1.37853
1.43033
1.46792
1.49589
1.51702
1.53253
1.54259
1.54734
1.54858
1.54874
0.697725
0.722431
0.770223
0.832227
0.901874
0.976778
1.05594
1.13846
1.22321
1.30872
1.38275
1.43712
1.47625
1.50509
1.52663
1.54238
1.55251
1.55736
1.55867
1.55879
0.670114
0.695177
0.744532
0.80879
0.881282
0.959479
1.04238
1.12902
1.21819
1.30823
1.38609
1.44299
1.48362
1.51328
1.53524
1.55112
1.56131
1.56622
1.56762
1.5677
0.643807
0.669285
0.720055
0.786314
0.861354
0.942498
1.02876
1.11918
1.21249
1.3069
1.38856
1.44805
1.49026
1.52082
1.54324
1.55932
1.56952
1.57436
1.57579
1.57592
0.618535
0.644444
0.696289
0.764519
0.841834
0.925628
1.01495
1.10883
1.20602
1.30467
1.39018
1.45241
1.49636
1.52796
1.55093
1.56726
1.57752
1.5823
1.58363
1.5837
0.593935
0.620399
0.673285
0.743222
0.82257
0.908745
1.00083
1.0979
1.19871
1.30148
1.39091
1.45611
1.50202
1.53484
1.5585
1.57516
1.58549
1.5902
1.59139
1.59138
0.56993
0.596835
0.650845
0.722305
0.803481
0.891794
0.986375
1.08635
1.19055
1.29729
1.39075
1.45914
1.50728
1.54151
1.56601
1.58306
1.59345
1.59804
1.5991
1.599
0.54644
0.573888
0.628857
0.701714
0.784539
0.874761
0.971578
1.07418
1.18151
1.29207
1.38958
1.46141
1.51211
1.54803
1.5735
1.59099
1.60138
1.60577
1.60666
1.60648
0.523376
0.55142
0.607315
0.68145
0.765743
0.85767
0.956475
1.06143
1.17162
1.28577
1.38731
1.46284
1.51646
1.55438
1.581
1.59893
1.60924
1.61332
1.61402
1.61378
0.500747
0.529444
0.586246
0.661539
0.747146
0.840568
0.941126
1.04816
1.1609
1.27836
1.38388
1.46329
1.52022
1.56057
1.58857
1.60691
1.61694
1.62059
1.62106
1.62077
0.478726
0.508029
0.565691
0.642023
0.728793
0.823528
0.9256
1.03445
1.14943
1.2699
1.3792
1.46261
1.52321
1.56653
1.59636
1.61509
1.62451
1.62747
1.62767
1.62735
0.457342
0.487222
0.545683
0.622961
0.710752
0.80662
0.909998
1.02038
1.1373
1.26042
1.37323
1.46063
1.52521
1.57212
1.60449
1.6239
1.63224
1.63392
1.63371
1.6334
0.436538
0.467065
0.526262
0.604394
0.69309
0.789931
0.894411
1.00607
1.12462
1.25
1.36595
1.45721
1.52592
1.577
1.61298
1.63402
1.64111
1.64045
1.63915
1.63903
0.416487
0.447582
0.507488
0.586392
0.675869
0.773544
0.878936
0.991644
1.1115
1.23875
1.35737
1.45223
1.52504
1.5806
1.62134
1.64595
1.6532
1.6496
1.64544
1.64441
0.397102
0.428783
0.489344
0.568928
0.659059
0.757413
0.863517
0.977026
1.09789
1.2266
1.34737
1.44542
1.52224
1.58214
1.6284
1.65905
1.67023
1.66733
1.65686
1.63976
0.378455
0.410676
0.471707
0.551813
0.642366
0.741203
0.847733
0.96173
1.08321
1.21288
1.33526
1.43592
1.51681
1.58044
1.63147
1.66934
1.68546
1.67644
1.65987
1.64195
0.360718
0.393124
0.454762
0.535288
0.62609
0.725261
0.831813
0.94609
1.06781
1.1979
1.3212
1.42341
1.50827
1.57454
1.62541
1.66352
1.68259
1.66475
1.59398
1.56033
0.34454
0.374966
0.438842
0.519946
0.610943
0.710078
0.816051
0.930329
1.0519
1.1818
1.3052
1.40772
1.49555
1.56455
1.60619
1.63594
1.6386
1.58879
1.51684
1.47192
0.288638
0.35908
0.424237
0.504616
0.595483
0.694255
0.800387
0.914182
1.03514
1.16416
1.28672
1.38849
1.47538
1.55164
1.55521
1.5705
1.53561
1.4709
1.39344
1.34978
0.327442
0.343378
0.402976
0.482891
0.573038
0.671508
0.7766
0.889497
1.00909
1.13608
1.25574
1.35471
1.43296
1.50906
1.50619
1.40096
1.29705
1.22508
1.15107
1.18652
0.296424
0.325633
0.386049
0.465453
0.555582
0.653701
0.758932
0.871059
0.989381
1.11426
1.23067
1.32538
1.39602
1.43604
1.39123
1.24647
1.1173
1.02536
0.924297
0.979535
0.272537
0.304733
0.36633
0.446042
0.536223
0.63418
0.739222
0.850387
0.967133
1.08938
1.2018
1.29079
1.35164
1.36061
1.25663
1.07958
0.921849
0.799342
0.664391
0.701774
0.249234
0.282969
0.345739
0.426284
0.516632
0.614439
0.718906
0.828991
0.943983
1.06327
1.17094
1.2536
1.29972
1.27574
1.11759
0.913836
0.714455
0.534557
0.335066
0.326728
0.226673
0.260752
0.324391
0.405664
0.496214
0.593819
0.697602
0.806504
0.919513
1.03551
1.13791
1.21339
1.24212
1.1835
0.985173
0.765008
0.534552
0.329455
0.069562
-0.254994
0.203876
0.237905
0.30203
0.38379
0.474554
0.572011
0.675186
0.78289
0.893839
1.00635
1.10332
1.17053
1.18184
1.07222
0.87017
0.650087
0.431511
0.245684
0.174672
0.0761241
0.17999
0.213987
0.278343
0.360337
0.451185
0.548409
0.650889
0.757233
0.865825
0.974384
1.06551
1.12285
1.10942
0.962743
0.768676
0.567986
0.395196
0.294871
0.270594
0.252415
0.154694
0.188681
0.253176
0.335239
0.426001
0.522837
0.624396
0.729091
0.83492
0.938908
1.02371
1.06897
1.03471
0.861576
0.676928
0.50228
0.36757
0.324961
0.309903
0.307946
0.127783
0.161844
0.226482
0.308532
0.399082
0.495323
0.59573
0.698458
0.801096
0.89994
0.977732
1.00977
0.957879
0.766797
0.59201
0.435785
0.346282
0.331549
0.329579
0.329547
0.0992466
0.133491
0.198263
0.280254
0.370453
0.465925
0.564939
0.665376
0.764401
0.857588
0.927435
0.947671
0.862881
0.679902
0.512927
0.382825
0.344357
0.34007
0.339722
0.340341
0.0693975
0.103847
0.168665
0.250532
0.340249
0.434754
0.53212
0.629945
0.724922
0.811977
0.873372
0.877981
0.765871
0.598208
0.447935
0.359103
0.349921
0.347508
0.346421
0.34674
0.0388124
0.0733207
0.137978
0.219627
0.30871
0.402035
0.497505
0.592394
0.682932
0.763375
0.81656
0.802137
0.675954
0.524198
0.393404
0.36886
0.351835
0.349604
0.350339
0.350845
0.00795916
0.0423802
0.106749
0.187969
0.276234
0.36817
0.461475
0.553128
0.638879
0.712421
0.756923
0.726361
0.585012
0.456488
0.360824
0.319624
0.339401
0.349222
0.352182
0.352902
-0.0223449
0.0118116
0.0757347
0.156207
0.243407
0.333726
0.424608
0.512766
0.593446
0.659919
0.694375
0.649821
0.489968
0.391321
0.347732
0.34823
0.339377
0.339346
0.342498
0.344431
-0.050554
-0.0172603
0.0457929
0.125211
0.211096
0.299502
0.387723
0.472187
0.547647
0.606805
0.633273
0.571178
0.38882
0.279794
0.323967
0.295035
0.2847
0.28346
0.287888
0.291809
-0.075363
-0.0430714
0.0180133
0.096175
0.180348
0.266556
0.351888
0.432555
0.502876
0.554528
0.576995
0.490325
0.281157
0.07996
0.087138
0.136688
0.17532
0.189964
0.196031
0.199781
-0.0948491
-0.064382
-0.00555537
0.07045
0.152424
0.236145
0.318438
0.39531
0.460884
0.505388
0.524966
0.42181
0.207495
-0.128455
-0.322931
-0.0932803
0.0263963
0.0661798
0.0781673
0.0870426
-0.10718
-0.079287
-0.0235033
0.049691
0.128908
0.209748
0.28889
0.36219
0.423633
0.462526
0.478259
0.387631
0.260163
0.0874011
-0.128218
-0.0455033
-0.0360477
-0.031208
-0.0221254
-0.0180932
-0.110105
-0.0859562
-0.0341847
0.0354936
0.111429
0.188969
0.264952
0.33516
0.393095
0.428644
0.438642
0.385554
0.44441
0.794475
0.907714
0.429069
0.0616822
0.0112191
-0.00274974
-0.00345134
-0.102303
-0.0824545
-0.035792
0.0292339
0.101308
0.175342
0.248356
0.316235
0.371851
0.404945
0.407552
0.346296
0.326381
0.489966
0.38865
6.41063e-05
-0.169957
-0.119066
-0.0402356
-0.0609621
-0.0819883
-0.0663039
-0.0270511
0.0318551
0.0994462
0.169975
0.240556
0.307251
0.36337
0.396019
0.384762
0.179983
-0.399752
-1.38872
-2.04143
-2.38603
-2.12764
-1.62615
-1.18017
-1.01651
-0.0505704
-0.0397845
-0.00831371
0.0431602
0.105894
0.173166
0.242299
0.309727
0.370281
0.411416
0.40343
0.154156
-0.546342
-1.49214
-2.19099
-2.43805
-2.21919
-1.8483
-1.48199
-1.3029
-0.012334
-0.00592299
0.0170702
0.061076
0.119084
0.183963
0.253146
0.324319
0.39265
0.456253
0.489201
0.436232
0.23474
0.123409
0.120758
0.345971
0.658343
0.932359
1.11732
1.20085
0.0268337
0.0303814
0.0445792
0.0815386
0.136008
0.199905
0.270686
0.347498
0.429609
0.517409
0.619653
0.76575
1.02637
1.51415
2.10737
2.6663
3.07737
3.31157
3.41249
3.43926
0.0609706
0.0629936
0.0709401
0.100549
0.152105
0.217043
0.290811
0.373659
0.468033
0.576832
0.706888
0.847129
1.13087
1.70666
2.35617
2.92506
3.33045
3.55891
3.65852
3.68518
0.0943047
0.0949509
0.0976983
0.118134
0.165693
0.231955
0.308532
0.39494
0.490975
0.60152
0.716153
0.840685
1.00871
1.45889
1.98136
2.41873
2.73888
2.92467
3.00926
3.03401
0.122785
0.123919
0.124678
0.136687
0.178974
0.245607
0.32393
0.41021
0.503107
0.607981
0.71166
0.812415
0.918176
1.19939
1.58913
1.90989
2.14445
2.28192
2.34494
2.36181
0.138893
0.139433
0.138531
0.147908
0.191717
0.261741
0.341434
0.425204
0.513558
0.609658
0.699067
0.775303
0.840776
1.02034
1.28245
1.5065
1.67037
1.76363
1.80487
1.81573
0.156545
0.153454
0.150252
0.16191
0.212023
0.286548
0.365864
0.444368
0.524586
0.608962
0.685177
0.74429
0.798457
0.911235
1.08588
1.23012
1.33306
1.39239
1.41775
1.42258
0.220946
0.21566
0.21141
0.224291
0.269857
0.335246
0.403523
0.470541
0.538505
0.609355
0.674505
0.724037
0.767624
0.840615
0.955899
1.04779
1.11015
1.14513
1.15911
1.16041
0.346627
0.343034
0.340053
0.347531
0.374019
0.412781
0.457156
0.504641
0.555922
0.612388
0.665936
0.707902
0.745993
0.794831
0.865304
0.92389
0.963247
0.984623
0.993435
0.993595
0.482094
0.480648
0.478417
0.477879
0.483061
0.494991
0.514506
0.541015
0.575001
0.616693
0.659353
0.697227
0.731644
0.765297
0.804741
0.841174
0.866567
0.88181
0.887428
0.886777
0.577619
0.577117
0.574713
0.568883
0.561687
0.558313
0.561688
0.572877
0.592337
0.620338
0.651539
0.683657
0.713682
0.737911
0.761658
0.783868
0.801581
0.812489
0.816991
0.815905
0.626996
0.626609
0.62417
0.617626
0.607741
0.598937
0.594633
0.596674
0.605665
0.621557
0.641745
0.664391
0.691279
0.703518
0.717669
0.735662
0.751201
0.761218
0.76509
0.76366
0.646486
0.646005
0.643855
0.63855
0.630177
0.621474
0.615009
0.61253
0.614665
0.620923
0.628809
0.638336
0.649419
0.653951
0.66676
0.686998
0.705091
0.716658
0.721157
0.719532
0.651869
0.651349
0.649603
0.64577
0.639868
0.633061
0.626901
0.622682
0.620513
0.61898
0.614283
0.604276
0.593092
0.593962
0.613493
0.639022
0.659543
0.672001
0.676925
0.675786
0.652208
0.651737
0.650382
0.647549
0.643478
0.638634
0.633702
0.629377
0.625412
0.619016
0.603429
0.571874
0.537422
0.537809
0.571385
0.603502
0.624961
0.636161
0.640015
0.639092
0.651011
0.650682
0.649765
0.647689
0.64472
0.641353
0.637931
0.634715
0.631316
0.623952
0.605102
0.56354
0.515506
0.525252
0.563666
0.593861
0.610826
0.617742
0.619783
0.619291
0.648216
0.648094
0.647695
0.646489
0.644397
0.642321
0.640608
0.639709
0.639037
0.63585
0.62315
0.590827
0.557844
0.5742
0.601961
0.618694
0.626178
0.6287
0.630045
0.630438
0.642138
0.642208
0.642267
0.641884
0.641088
0.640559
0.641126
0.643429
0.648804
0.652636
0.654284
0.644821
0.638708
0.653459
0.666061
0.671629
0.674286
0.676794
0.677781
0.676662
0.631107
0.631378
0.631888
0.632351
0.63295
0.634466
0.637956
0.644263
0.655197
0.670509
0.688145
0.702132
0.720563
0.730656
0.726499
0.722848
0.72402
0.72686
0.726568
0.724991
0.613565
0.614015
0.614954
0.616288
0.618313
0.621974
0.628466
0.639533
0.657206
0.682565
0.712687
0.742205
0.776213
0.776916
0.764959
0.7588
0.75862
0.759151
0.758224
0.757128
0.587044
0.587883
0.589315
0.591454
0.594798
0.600407
0.609753
0.625083
0.648317
0.681358
0.718098
0.752363
0.783092
0.781079
0.774313
0.775699
0.779223
0.780683
0.777627
0.776298
0.548474
0.549568
0.551529
0.554497
0.559011
0.566024
0.576994
0.594267
0.6202
0.657182
0.69738
0.726268
0.742059
0.742484
0.751982
0.774235
0.789829
0.788377
0.783309
0.782702
0.494446
0.495823
0.498189
0.501803
0.506956
0.513989
0.523707
0.537842
0.55958
0.593474
0.639656
0.670303
0.667108
0.671074
0.717607
0.760303
0.790476
0.794184
0.788941
0.788907
0.423147
0.424604
0.42707
0.430794
0.43533
0.439694
0.442904
0.444525
0.446693
0.469155
0.533616
0.581176
0.573335
0.591444
0.674148
0.749234
0.78736
0.789437
0.78525
0.783709
0.336076
0.337291
0.339408
0.342365
0.344271
0.341827
0.330087
0.302527
0.264816
0.267202
0.370664
0.45907
0.466001
0.512593
0.609835
0.696387
0.738371
0.729592
0.723191
0.720466
0.240189
0.240755
0.242138
0.243598
0.24115
0.227929
0.191218
0.114412
0.00914603
-0.00455735
0.161974
0.299565
0.339286
0.415657
0.513986
0.580699
0.595109
0.591019
0.586373
0.583989
0.148624
0.148104
0.148595
0.148733
0.142328
0.118146
0.0537541
-0.0773951
-0.242556
-0.263184
-0.044075
0.141909
0.194455
0.304731
0.38309
0.418173
0.407139
0.404147
0.403871
0.403649
0.0728892
0.0724275
0.0735707
0.073489
0.0677318
0.0445896
-0.0259742
-0.173385
-0.329021
-0.363083
-0.147097
0.012993
0.0833836
0.197731
0.231472
0.229528
0.226369
0.224623
0.224924
0.225175
0.0210737
0.0206453
0.0215864
0.0239012
0.0251247
0.0229859
0.00620133
-0.0431794
-0.107419
-0.14112
-0.0824405
-0.00811831
-0.00723395
-0.0174256
-0.0127654
0.0549711
0.0513263
0.0467557
0.0456413
0.0451776
0.57893
0.761451
0.974386
1.15643
1.30307
1.42007
1.51772
1.60015
1.63699
1.61406
0.911313
1.04177
1.18112
1.30174
1.40389
1.4889
1.55773
1.60655
1.6313
1.64311
1.1474
1.23637
1.33106
1.41506
1.48747
1.54808
1.59622
1.63135
1.65651
1.67421
1.31866
1.38114
1.44745
1.50813
1.56095
1.60574
1.64243
1.67157
1.69523
1.71335
1.4508
1.49656
1.54476
1.59086
1.63157
1.66703
1.69727
1.72233
1.74326
1.76099
1.55908
1.59344
1.63315
1.67021
1.70413
1.73443
1.76083
1.78293
1.80114
1.81844
1.6541
1.68369
1.71878
1.75184
1.78259
1.81044
1.83473
1.85484
1.8706
1.88767
1.74428
1.77405
1.80874
1.84135
1.87146
1.89848
1.9217
1.94045
1.954
1.97104
1.8406
1.87407
1.91115
1.94511
1.97549
2.00196
2.02414
2.04159
2.05358
2.071
1.95631
1.99411
2.03307
2.0676
2.09715
2.12207
2.14258
2.15858
2.17013
2.18822
2.10172
2.14042
2.17652
2.20733
2.23312
2.25532
2.27445
2.29005
2.30253
2.32054
2.27671
2.30862
2.33488
2.35735
2.37739
2.39616
2.41393
2.43044
2.44583
2.4639
2.46545
2.48275
2.49791
2.51419
2.53013
2.5447
2.55793
2.57188
2.58945
2.60961
2.64745
2.65689
2.66845
2.67929
2.68859
2.69821
2.70903
2.72042
2.7318
2.74716
2.85458
2.85827
2.84335
2.82855
2.8223
2.828
2.8465
2.87682
2.90901
2.93567
3.16092
3.02606
2.94944
2.90712
2.88971
2.89368
2.92109
2.97751
3.08014
3.30451
1.44165
1.43951
1.43503
1.4264
1.41416
1.40202
1.39177
1.38385
1.37818
1.37485
1.3744
1.37703
1.38205
1.3892
1.39854
1.41004
1.42266
1.43368
1.43978
1.44283
1.36611
1.37196
1.37829
1.38278
1.38524
1.3849
1.38214
1.3783
1.37474
1.3724
1.37215
1.37423
1.3778
1.38202
1.38577
1.38761
1.38664
1.38314
1.37795
1.37132
1.35772
1.36002
1.36342
1.36641
1.36847
1.36995
1.37068
1.37033
1.36925
1.36828
1.36834
1.36965
1.37136
1.37258
1.37269
1.37175
1.37016
1.36779
1.36451
1.36158
1.35226
1.35334
1.35517
1.35755
1.35956
1.36097
1.36197
1.36267
1.36301
1.36314
1.3635
1.36417
1.36464
1.36461
1.36411
1.3632
1.36168
1.35955
1.35743
1.35604
1.34712
1.34778
1.34889
1.35059
1.35236
1.35398
1.35525
1.35622
1.35703
1.35771
1.35829
1.35867
1.35872
1.35842
1.35775
1.35661
1.35511
1.35351
1.35215
1.35136
1.34222
1.34268
1.34347
1.34477
1.34625
1.34776
1.3492
1.35045
1.35151
1.35244
1.35317
1.35354
1.3535
1.35306
1.35223
1.35112
1.3499
1.34869
1.34772
1.3472
1.3375
1.33784
1.33845
1.33953
1.34083
1.34221
1.34363
1.34503
1.34633
1.34747
1.34836
1.3488
1.34874
1.34825
1.34747
1.34653
1.34555
1.34458
1.34384
1.34346
1.3329
1.33317
1.33367
1.33459
1.33578
1.33708
1.33846
1.33991
1.34136
1.34271
1.3438
1.34437
1.34437
1.34398
1.34335
1.34259
1.34177
1.34099
1.34043
1.34013
1.32837
1.32858
1.32899
1.32982
1.33094
1.3322
1.33357
1.33504
1.33661
1.33817
1.3395
1.34024
1.34041
1.34021
1.33976
1.33916
1.33849
1.33787
1.33743
1.3372
1.32384
1.324
1.32436
1.32512
1.3262
1.32745
1.32885
1.33039
1.33206
1.33381
1.33541
1.33645
1.33689
1.33691
1.33664
1.33621
1.33569
1.33519
1.33485
1.33467
1.31925
1.31938
1.31969
1.32041
1.32149
1.32277
1.32423
1.3259
1.32776
1.32978
1.33172
1.33311
1.33384
1.33409
1.33401
1.33373
1.33335
1.33297
1.33272
1.33258
1.31454
1.31463
1.31491
1.31562
1.31673
1.31809
1.31965
1.32148
1.32359
1.32594
1.32831
1.33013
1.33121
1.33173
1.33188
1.33177
1.33153
1.33125
1.33106
1.33096
1.30968
1.30974
1.31
1.3107
1.31186
1.31331
1.315
1.317
1.31939
1.32218
1.32508
1.32742
1.32892
1.32982
1.33027
1.33038
1.33029
1.33012
1.33001
1.32993
1.3046
1.30463
1.30487
1.30559
1.30681
1.30838
1.31026
1.31255
1.31532
1.3186
1.32216
1.32518
1.32724
1.32853
1.32927
1.32965
1.32974
1.3297
1.32966
1.32961
1.29924
1.29924
1.29946
1.30019
1.3015
1.30321
1.30531
1.30794
1.31121
1.31519
1.31958
1.32336
1.32604
1.32786
1.329
1.32963
1.32998
1.3301
1.33014
1.33012
1.29344
1.29343
1.29364
1.29438
1.29575
1.2976
1.29997
1.30299
1.30683
1.31159
1.31699
1.32181
1.32532
1.32778
1.32942
1.33052
1.33119
1.33153
1.33167
1.33167
1.2869
1.28687
1.2871
1.28788
1.28935
1.29143
1.29417
1.29777
1.30242
1.30827
1.31493
1.3209
1.32533
1.32851
1.33077
1.33235
1.3334
1.33399
1.33422
1.33423
1.27923
1.27919
1.27944
1.2803
1.28194
1.28431
1.28754
1.29184
1.29747
1.30461
1.31283
1.32028
1.32589
1.32999
1.33296
1.33509
1.33658
1.33744
1.33777
1.33778
1.26993
1.26987
1.27018
1.2712
1.27313
1.27599
1.27992
1.28521
1.29216
1.30098
1.31111
1.32031
1.32723
1.33236
1.33613
1.3389
1.34082
1.34194
1.34236
1.34238
1.25854
1.25846
1.25886
1.26013
1.2625
1.26606
1.27096
1.27755
1.28619
1.29711
1.3096
1.32088
1.3294
1.33572
1.34039
1.34384
1.34624
1.34763
1.34814
1.34816
1.24442
1.24433
1.24487
1.2465
1.24951
1.25404
1.26027
1.26861
1.27947
1.29306
1.3084
1.32216
1.33251
1.3402
1.34592
1.35014
1.3531
1.35477
1.35536
1.35539
1.22666
1.22655
1.22732
1.2295
1.23343
1.23933
1.24742
1.25815
1.27192
1.28885
1.30764
1.32428
1.33673
1.34599
1.35289
1.35801
1.36158
1.36356
1.36424
1.36427
1.20381
1.20369
1.20482
1.20784
1.21319
1.22115
1.23193
1.24595
1.26352
1.28458
1.30745
1.32739
1.34222
1.35324
1.3615
1.36763
1.37189
1.37418
1.37496
1.37499
1.17361
1.17352
1.17529
1.17975
1.18745
1.19867
1.21343
1.232
1.25444
1.28049
1.30804
1.33166
1.34913
1.36212
1.37189
1.37916
1.38412
1.38676
1.38763
1.38763
1.13211
1.1322
1.13539
1.14278
1.15472
1.17126
1.19188
1.21654
1.24505
1.27692
1.30967
1.33727
1.35756
1.37269
1.38411
1.39262
1.39832
1.40129
1.40223
1.4022
1.07188
1.07314
1.08089
1.09469
1.11427
1.13912
1.16789
1.20027
1.23594
1.27431
1.31261
1.34435
1.36754
1.38486
1.39795
1.40767
1.41424
1.41756
1.41847
1.4184
1.00035
1.00238
1.01701
1.04073
1.07099
1.10543
1.14307
1.18372
1.22712
1.27277
1.31769
1.35476
1.38198
1.40244
1.41798
1.42952
1.43734
1.44132
1.4424
1.44238
0.926952
0.933599
0.955224
0.988847
1.02888
1.07261
1.11904
1.16796
1.21918
1.27225
1.324
1.36659
1.39791
1.42157
1.43973
1.45345
1.46267
1.46656
1.46781
1.46807
0.867932
0.876524
0.902855
0.943206
0.990753
1.04224
1.09647
1.15307
1.21171
1.27189
1.33009
1.37774
1.41267
1.43897
1.45908
1.47419
1.48425
1.4892
1.49124
1.49162
0.820025
0.829184
0.85895
0.90415
0.957428
1.0151
1.07586
1.13919
1.20455
1.27127
1.33544
1.38761
1.42561
1.45408
1.47579
1.49219
1.50346
1.5092
1.51153
1.51195
0.779877
0.789263
0.821352
0.870296
0.92817
0.990934
1.0572
1.12635
1.19768
1.27035
1.3399
1.39611
1.43675
1.467
1.48995
1.50728
1.51923
1.5256
1.5282
1.52867
0.744976
0.754459
0.788255
0.840259
0.90193
0.969005
1.04004
1.11432
1.191
1.26905
1.34353
1.40336
1.44629
1.47799
1.50188
1.51985
1.5323
1.53917
1.54191
1.54239
0.713738
0.723264
0.758401
0.812945
0.877823
0.948622
1.02386
1.10272
1.18426
1.26727
1.34633
1.40951
1.45451
1.48745
1.51205
1.53039
1.54313
1.55025
1.55303
1.55354
0.68498
0.694562
0.730822
0.787571
0.855207
0.929267
1.00823
1.09123
1.17723
1.26488
1.3483
1.41472
1.46167
1.49574
1.52094
1.53956
1.5524
1.55966
1.56241
1.56295
0.657929
0.66757
0.704825
0.763486
0.833602
0.910559
0.992851
1.0796
1.16972
1.26176
1.34942
1.41905
1.468
1.50321
1.52903
1.54795
1.5609
1.5682
1.57098
1.57134
0.632083
0.641822
0.680011
0.740289
0.812663
0.892215
0.977506
1.06768
1.16161
1.25782
1.34965
1.42257
1.47362
1.51012
1.53664
1.55591
1.569
1.57627
1.57902
1.57936
0.607041
0.616965
0.655985
0.717815
0.792172
0.87405
0.962051
1.05533
1.15281
1.25298
1.34896
1.42531
1.47868
1.51663
1.544
1.56371
1.57699
1.58426
1.5869
1.58724
0.582621
0.592786
0.632568
0.695886
0.772008
0.855969
0.946411
1.04252
1.14326
1.24722
1.34731
1.42727
1.48321
1.52283
1.55121
1.57148
1.58498
1.59222
1.59473
1.59502
0.558768
0.569155
0.609735
0.674369
0.752098
0.837933
0.93056
1.02923
1.13297
1.24048
1.34465
1.4284
1.48718
1.52874
1.55833
1.57925
1.59298
1.60013
1.60247
1.60267
0.535371
0.546074
0.587381
0.653246
0.732425
0.819932
0.914509
1.01547
1.12194
1.23277
1.34089
1.42858
1.49053
1.53436
1.56537
1.58702
1.60096
1.60797
1.61007
1.61016
0.512491
0.523485
0.56554
0.632522
0.71301
0.802004
0.89831
1.00129
1.1102
1.22407
1.33599
1.42771
1.49315
1.53966
1.57238
1.59485
1.60888
1.61559
1.61739
1.61738
0.490099
0.501404
0.544232
0.612236
0.693894
0.784197
0.882018
0.98678
1.09783
1.21442
1.32991
1.42568
1.49488
1.54452
1.5794
1.60284
1.61677
1.62293
1.62434
1.62422
0.468384
0.479928
0.523494
0.592434
0.675139
0.766594
0.865709
0.972006
1.08491
1.2039
1.32265
1.42238
1.49554
1.5488
1.58646
1.61123
1.62487
1.63
1.63078
1.63056
0.447217
0.459105
0.503365
0.573154
0.656785
0.749242
0.849484
0.957065
1.07154
1.19261
1.31422
1.4177
1.49491
1.5522
1.59344
1.6204
1.63379
1.63714
1.6367
1.63628
0.426766
0.438966
0.48388
0.554451
0.638919
0.732232
0.833429
0.942083
1.05784
1.18061
1.30469
1.41157
1.49277
1.55432
1.59997
1.63051
1.64477
1.64592
1.64272
1.64114
0.406978
0.419471
0.465093
0.536383
0.621584
0.715634
0.817628
0.927142
1.04393
1.16807
1.29417
1.40395
1.48895
1.5547
1.6052
1.64098
1.65878
1.65989
1.65269
1.64258
0.387935
0.400664
0.446904
0.518797
0.604569
0.699163
0.80174
0.91183
1.02934
1.15444
1.28206
1.39419
1.48285
1.55267
1.60783
1.65014
1.67477
1.67965
1.67105
1.66173
0.369694
0.382637
0.429312
0.501738
0.587889
0.682817
0.785787
0.896132
1.01404
1.13963
1.26821
1.38198
1.47381
1.54753
1.60532
1.6523
1.68023
1.69022
1.6543
1.6001
0.352518
0.366161
0.41242
0.485265
0.571432
0.666466
0.769727
0.880172
0.99809
1.12373
1.25261
1.36721
1.46089
1.53905
1.59581
1.63606
1.66507
1.65592
1.59856
1.53236
0.336102
0.350557
0.396418
0.469988
0.555526
0.650585
0.753341
0.864011
0.981643
1.10689
1.23528
1.34977
1.4431
1.52839
1.57837
1.63148
1.60576
1.56639
1.49651
1.42667
0.350215
0.368256
0.416822
0.49445
0.584837
0.683617
0.791621
0.905129
1.02567
1.1541
1.27598
1.37722
1.46213
1.55252
1.60336
1.52283
1.47909
1.41721
1.34357
1.29449
0.325845
0.342289
0.377844
0.445795
0.530905
0.62542
0.728271
0.838238
0.954937
1.07871
1.20485
1.31707
1.4067
1.48593
1.55685
1.55925
1.43887
1.35517
1.29223
1.20746
0.305859
0.321553
0.362865
0.43224
0.517603
0.611692
0.71334
0.822337
0.937946
1.06012
1.18424
1.29392
1.38039
1.4468
1.47369
1.40406
1.26211
1.16471
1.08841
0.997551
0.285467
0.297997
0.343809
0.414487
0.500031
0.594283
0.695844
0.804435
0.919022
1.0395
1.16054
1.26546
1.3448
1.3955
1.37343
1.24387
1.08801
0.967223
0.866959
0.726398
0.26188
0.27497
0.322808
0.394626
0.480495
0.574767
0.676176
0.784098
0.89746
1.01588
1.13333
1.23281
1.3042
1.33521
1.27666
1.09046
0.902388
0.742537
0.595105
0.393734
0.239394
0.252105
0.301173
0.374161
0.460533
0.554761
0.655768
0.762773
0.874664
0.99066
1.10415
1.19765
1.26039
1.26224
1.15165
0.945478
0.723685
0.509957
0.323558
-0.0970401
0.216958
0.229244
0.278802
0.352659
0.43944
0.533689
0.634285
0.740363
0.850672
0.964017
1.07322
1.1601
1.21235
1.17964
1.02686
0.81698
0.58823
0.362397
0.168967
-0.145357
0.193664
0.205787
0.255488
0.329877
0.416943
0.511223
0.611446
0.716619
0.825291
0.935818
1.04049
1.12031
1.1594
1.10715
0.914317
0.712692
0.503901
0.325651
0.249821
0.21348
0.16906
0.181006
0.230871
0.30553
0.392681
0.486831
0.586529
0.690572
0.797278
0.904505
1.00401
1.07607
1.10041
1.01869
0.814013
0.624975
0.453098
0.338195
0.300406
0.288535
0.142949
0.154837
0.204798
0.279615
0.366728
0.460583
0.559548
0.662206
0.766578
0.869997
0.963658
1.02779
1.03036
0.913408
0.723154
0.547868
0.401131
0.339984
0.325239
0.320406
0.115294
0.126946
0.177215
0.252145
0.339123
0.432513
0.530541
0.631529
0.7332
0.832352
0.919462
0.9753
0.950943
0.81355
0.637014
0.472819
0.365817
0.327522
0.334033
0.334562
0.0861012
0.0977293
0.148161
0.223192
0.309941
0.402711
0.499574
0.598616
0.697217
0.791612
0.871692
0.917353
0.875676
0.718862
0.558233
0.411334
0.363158
0.348287
0.343927
0.343573
0.0557863
0.0674246
0.11786
0.192961
0.279357
0.371337
0.466807
0.563622
0.65878
0.747958
0.820664
0.854571
0.804802
0.634387
0.487051
0.380128
0.331616
0.345056
0.347926
0.348379
0.0248295
0.0363997
0.0868505
0.161788
0.247711
0.338702
0.432554
0.526852
0.618222
0.701795
0.76665
0.791378
0.719207
0.554819
0.427573
0.351435
0.346727
0.348253
0.350431
0.351486
-0.00591249
0.00535685
0.0558034
0.130203
0.215501
0.305295
0.397275
0.488785
0.576074
0.653746
0.710591
0.72448
0.622297
0.476525
0.379311
0.368603
0.34617
0.345462
0.350723
0.352107
-0.0355247
-0.0246198
0.0253171
0.0992185
0.183428
0.271817
0.361663
0.45014