/*--------------------------------*- C++ -*----------------------------------*\
  =========                 |
  \\      /  F ield         | OpenFOAM: The Open Source CFD Toolbox
   \\    /   O peration     | Website:  https://openfoam.org
    \\  /    A nd           | Version:  9
     \\/     M anipulation  |
\*---------------------------------------------------------------------------*/
FoamFile
{
    format      ascii;
    class       surfaceScalarField;
    location    "31";
    object      phi;
}
// * * * * * * * * * * * * * * * * * * * * * * * * * * * * * * * * * * * * * //

dimensions      [0 3 -1 0 0 0 0];

internalField   nonuniform List<scalar> 
17370
(
-0.0916072
0.0960065
0.284612
-0.0775897
0.059413
0.364952
-0.0430348
0.0316156
0.427587
-0.0223105
0.0162555
0.505307
-0.0116579
0.00877859
0.602281
-0.00656162
0.00507484
0.720544
-0.00384236
0.00297183
0.863777
-0.00221385
0.00165025
1.03601
-0.00113341
0.000722856
1.24291
-0.000317096
-7.18217e-05
1.49158
0.000456857
-0.000864581
1.4916
0.00126905
-0.00177593
1.2432
0.00232971
-0.00307709
1.03639
0.00393862
-0.00516193
0.86413
0.00664019
-0.00884687
0.721264
0.0117154
-0.0162996
0.603799
0.0223417
-0.031633
0.508731
0.0430378
-0.0594072
0.432537
0.0775862
-0.0960029
0.365192
0.0916181
0.197393
-0.127086
0.0880171
0.0390692
-0.364349
0.354023
-0.0714789
0.0818051
-0.446655
0.454245
-0.0791676
0.0715773
-0.521008
0.529105
-0.0637284
0.0556312
-0.612986
0.620756
-0.0482444
0.0404742
-0.727157
0.733678
-0.0338611
0.0273404
-0.867578
0.872418
-0.0221413
0.017301
-1.03856
1.04188
-0.0136185
0.0102999
-1.24471
1.2471
-0.00776806
0.0053818
-1.49284
1.49483
-0.00343407
0.00143899
-1.49269
1.49449
0.000370255
-0.00217635
-1.24411
1.24602
0.004145
-0.00605885
-1.03761
1.0401
0.00840326
-0.0108949
-0.866191
0.869833
0.0141686
-0.0178104
-0.7246
0.729761
0.0226072
-0.0277679
-0.60907
0.615646
0.0342476
-0.0408241
-0.515127
0.522473
0.0485538
-0.0559
-0.439881
0.447672
0.0639379
-0.0717294
-0.374714
0.377364
0.0792381
-0.0818879
-0.256911
0.22446
0.0715434
-0.0390929
-0.0687986
0.0591849
0.00961368
-0.0521195
0.0589556
-0.37483
0.367994
-0.0581107
0.0542713
-0.453936
0.457776
-0.0487846
0.0442241
-0.527601
0.532162
-0.0396706
0.0357709
-0.620782
0.624682
-0.0315567
0.0275703
-0.734644
0.73863
-0.0232375
0.0193826
-0.873943
0.877798
-0.0153788
0.0119569
-1.04334
1.04677
-0.00847082
0.00546225
-1.24863
1.25163
-0.00227495
-0.000690246
-1.49692
1.49989
0.0036407
-0.006783
-1.49741
1.50055
0.00972909
-0.0131372
-1.25007
1.25348
0.0164831
-0.0204017
-1.04567
1.04958
0.0241808
-0.0284335
-0.877158
0.881411
0.032347
-0.036482
-0.739005
0.74314
0.0403147
-0.0448039
-0.62599
0.630479
0.0493128
-0.0547498
-0.535034
0.540471
0.0585319
-0.0593098
-0.458099
0.458877
0.0523812
-0.0320253
-0.336801
0.316445
0.00966065
-0.0686868
0.0590261
-0.053393
0.0492795
0.00411351
-0.0332589
0.0436912
-0.358537
0.348104
-0.047374
0.0467922
-0.459559
0.46014
-0.0438671
0.0406563
-0.536107
0.539318
-0.0369821
0.0336328
-0.628364
0.631713
-0.030011
0.0267897
-0.741999
0.74522
-0.0233663
0.0202008
-0.881292
0.884458
-0.0166468
0.0133288
-1.05019
1.05351
-0.00966661
0.00629619
-1.25488
1.25825
-0.00254455
-0.00103712
-1.50322
1.50681
0.00459396
-0.00827349
-1.50404
1.50772
0.0115512
-0.0150971
-1.25703
1.26058
0.0183028
-0.0217306
-1.05329
1.05672
0.0247841
-0.0280905
-0.885025
0.888332
0.0312084
-0.0347206
-0.746837
0.750349
0.037974
-0.0415498
-0.634614
0.63819
0.0446776
-0.0475112
-0.544627
0.547461
0.0479998
-0.0441886
-0.457013
0.453202
0.0336009
-0.0163335
-0.297163
0.279896
0.00416489
-0.053189
0.0490241
-0.0461074
0.0435513
0.00255611
-0.0230531
0.0334076
-0.337502
0.327147
-0.0391465
0.0401011
-0.459874
0.458919
-0.0388581
0.0365396
-0.54195
0.544269
-0.0339068
0.0313694
-0.634652
0.637189
-0.0284074
0.0255862
-0.748291
0.751112
-0.0223939
0.019431
-0.887514
0.890477
-0.0161358
0.0130511
-1.05667
1.05975
-0.00954699
0.00619186
-1.26162
1.26497
-0.00232586
-0.00143638
-1.51051
1.51427
0.0051661
-0.00893091
-1.51149
1.51525
0.0121535
-0.015493
-1.26403
1.26737
0.018419
-0.02154
-1.05993
1.06305
0.0243517
-0.0273873
-0.891543
0.894578
0.0300699
-0.0328841
-0.753546
0.75636
0.035292
-0.0377937
-0.641154
0.643655
0.0400041
-0.0411083
-0.54931
0.550414
0.0400112
-0.0340667
-0.448115
0.44217
0.0234887
-0.010311
-0.264767
0.251589
0.0026197
-0.0457964
0.0431767
-0.0414316
0.0396319
0.00179969
-0.0169351
0.0262197
-0.317271
0.307987
-0.0328201
0.0349459
-0.457347
0.455221
-0.0345158
0.0328187
-0.546285
0.547982
-0.0305904
0.0284676
-0.639478
0.641601
-0.0260508
0.023713
-0.753687
0.756025
-0.0209649
0.0182884
-0.89331
0.895987
-0.0151783
0.0122039
-1.06276
1.06573
-0.00879798
0.00554015
-1.26825
1.27151
-0.00177196
-0.00190344
-1.518
1.52168
0.00553684
-0.00917559
-1.51898
1.52262
0.0122609
-0.0154486
-1.27063
1.27382
0.0182111
-0.0210887
-1.06606
1.06894
0.0235647
-0.0261079
-0.89736
0.899903
0.0282686
-0.0305
-0.758826
0.761058
0.032459
-0.0345178
-0.645916
0.647975
0.0360576
-0.0362977
-0.551033
0.551273
0.0339544
-0.0270562
-0.43565
0.428752
0.0174752
-0.00738829
-0.240097
0.230011
0.00187731
-0.0409894
0.0391121
-0.0380836
0.0367361
0.00134754
-0.0129074
0.0208893
-0.29935
0.291368
-0.0276499
0.0305797
-0.452647
0.449717
-0.0308089
0.029712
-0.549386
0.550483
-0.0277476
0.0258539
-0.643614
0.645508
-0.0236843
0.0215926
-0.758242
0.760334
-0.019153
0.016752
-0.898517
0.900918
-0.013907
0.0111207
-1.06858
1.07137
-0.00787226
0.00473697
-1.27467
1.27781
-0.00109623
-0.00245086
-1.52527
1.52882
0.0059432
-0.00942162
-1.5262
1.52968
0.0123419
-0.0153103
-1.27693
1.2799
0.0178224
-0.0203664
-1.07167
1.07421
0.0225126
-0.0246958
-0.90223
0.904413
0.0265665
-0.0285042
-0.763117
0.765055
0.0301931
-0.0319514
-0.649865
0.651623
0.0328194
-0.0323265
-0.551142
0.550649
0.0290896
-0.0219265
-0.421659
0.414496
0.0135681
-0.00565367
-0.221111
0.213197
0.00144186
-0.0374815
0.0360397
-0.0355596
0.0345275
0.00103216
-0.0100375
0.0167681
-0.284031
0.2773
-0.0232529
0.0266238
-0.446537
0.443167
-0.0274043
0.0267163
-0.551345
0.552033
-0.0249604
0.0231985
-0.647343
0.649105
-0.0211896
0.0192685
-0.762362
0.764283
-0.0170324
0.0148366
-0.903201
0.905397
-0.0122432
0.00968971
-1.07398
1.07654
-0.00667717
0.00372486
-1.28082
1.28377
-0.000262025
-0.00311651
-1.53227
1.53565
0.00642951
-0.00969121
-1.53307
1.53633
0.0123762
-0.0150429
-1.28274
1.28541
0.0172559
-0.0194683
-1.07659
1.0788
0.0213353
-0.0232447
-0.90643
0.90834
0.0248907
-0.026614
-0.766854
0.768577
0.0281234
-0.0295994
-0.653267
0.654743
0.029998
-0.0288433
-0.549844
0.548689
0.0250519
-0.0180418
-0.407384
0.400374
0.010843
-0.00448195
-0.206129
0.199768
0.001147
-0.0347636
0.0336166
-0.0336217
0.0328243
0.00079733
-0.00788495
0.0135044
-0.271145
0.265526
-0.0194826
0.0230541
-0.439672
0.4361
-0.0243367
0.0239252
-0.552597
0.553009
-0.0224756
0.0208511
-0.650827
0.652452
-0.0189651
0.0171533
-0.766186
0.767997
-0.015035
0.0129464
-0.907514
0.909603
-0.0104762
0.00805629
-1.07896
1.08138
-0.00522321
0.00246142
-1.28658
1.28934
0.000763952
-0.00390958
-1.53888
1.54203
0.00697722
-0.00996525
-1.53947
1.54246
0.0124032
-0.0148089
-1.28796
1.29037
0.0168033
-0.0187965
-1.08091
1.0829
0.0204661
-0.0221697
-0.910133
0.911837
0.0236441
-0.0251849
-0.77018
0.771721
0.0264957
-0.0275821
-0.656034
0.65712
0.0276134
-0.0258278
-0.547231
0.545445
0.0217035
-0.0150606
-0.39354
0.386897
0.0088655
-0.00364617
-0.194029
0.188809
0.000937081
-0.0325899
0.0316528
-0.0321253
0.0315136
0.000611689
-0.00618853
0.0108328
-0.260414
0.25577
-0.0161618
0.0196956
-0.432528
0.428994
-0.021289
0.0211203
-0.553291
0.55346
-0.0199457
0.0184392
-0.654026
0.655532
-0.0166696
0.0149551
-0.769807
0.771522
-0.0129373
0.010943
-0.911629
0.913623
-0.0085898
0.00629788
-1.08367
1.08596
-0.00362729
0.00103757
-1.29197
1.29456
0.00197524
-0.00489414
-1.54504
1.54795
0.00771388
-0.0104308
-1.54531
1.54803
0.0126212
-0.0147622
-1.29268
1.29482
0.0165245
-0.0182796
-1.08481
1.08656
0.0197523
-0.0212496
-0.913439
0.914936
0.0225381
-0.0238818
-0.773108
0.774452
0.0250229
-0.0257231
-0.658
0.6587
0.0254034
-0.0231446
-0.543437
0.541178
0.0188954
-0.0127339
-0.380508
0.374347
0.00738383
-0.00302825
-0.184063
0.179708
0.000782522
-0.0308071
0.0300245
-0.0309819
0.030522
0.000459858
-0.00479073
0.00857101
-0.251574
0.247794
-0.0131915
0.0165277
-0.425549
0.422213
-0.0182711
0.0182761
-0.553551
0.553546
-0.0172876
0.0158256
-0.657053
0.658515
-0.0141112
0.0124679
-0.773242
0.774885
-0.0105563
0.00868299
-0.915509
0.917382
-0.00647774
0.00432528
-1.08811
1.09026
-0.00181319
-0.000616171
-1.29702
1.29945
0.00342393
-0.00610467
-1.55073
1.55341
0.00866532
-0.0111093
-1.55062
1.55307
0.0130544
-0.0149295
-1.29686
1.29874
0.0164409
-0.0179108
-1.0882
1.08967
0.0191305
-0.0203716
-0.9163
0.917541
0.0214582
-0.0226287
-0.775657
0.776828
0.0236278
-0.0240007
-0.659213
0.659586
0.0233598
-0.0207618
-0.538781
0.536183
0.016527
-0.010883
-0.368469
0.362825
0.00624385
-0.00256139
-0.175726
0.172043
0.000667612
-0.029314
0.0286463
-0.0301315
0.0298022
0.000329329
-0.00357953
0.0065709
-0.24442
0.241428
-0.0104486
0.0134764
-0.419027
0.415999
-0.0152783
0.0154766
-0.553469
0.553271
-0.0146511
0.0133375
-0.659967
0.661281
-0.0117092
0.0101204
-0.776534
0.778123
-0.00824773
0.00640339
-0.919165
0.92101
-0.00424514
0.00216252
-1.09229
1.09438
0.000233736
-0.00252729
-1.30176
1.30405
0.00513466
-0.00758763
-1.55594
1.55839
0.00989167
-0.0120507
-1.55537
1.55753
0.0137397
-0.0153335
-1.30052
1.30211
0.0165976
-0.0178248
-1.09106
1.09229
0.0188403
-0.0198856
-0.918678
0.919723
0.0208121
-0.0217889
-0.777851
0.778827
0.0225024
-0.0225734
-0.659815
0.659886
0.0215791
-0.018687
-0.533478
0.530586
0.0145354
-0.00940006
-0.357464
0.352329
0.00535913
-0.00220909
-0.168661
0.165511
0.000584737
-0.028036
0.0274513
-0.0295388
0.0293327
0.000206098
-0.00246266
0.00470502
-0.238821
0.236579
-0.00779782
0.010388
-0.413192
0.410601
-0.0120968
0.0124149
-0.553029
0.552711
-0.0117289
0.0105718
-0.66257
0.663727
-0.00902193
0.00745816
-0.779729
0.781293
-0.00559548
0.00377256
-0.922761
0.924584
-0.00166865
-0.000329417
-1.09633
1.09832
0.00260722
-0.00475723
-1.30621
1.30836
0.007183
-0.00943965
-1.56072
1.56297
0.0115074
-0.0133751
-1.55956
1.56143
0.0147846
-0.0160802
-1.30362
1.30492
0.017099
-0.0180726
-1.09348
1.09445
0.0188725
-0.0196894
-0.920653
0.92147
0.0203821
-0.0210555
-0.77956
0.780233
0.0214348
-0.0211982
-0.659758
0.659521
0.0198329
-0.0167577
-0.52764
0.524565
0.0127838
-0.00815816
-0.347491
0.342865
0.00463908
-0.00192843
-0.162619
0.159909
0.000520022
-0.0269177
0.0263977
-0.0291888
0.0291016
8.71364e-05
-0.00140808
0.00293346
-0.234711
0.233186
-0.00522453
0.00728018
-0.408299
0.406243
-0.00872317
0.00899148
-0.552453
0.552185
-0.00830681
0.00719276
-0.664943
0.666057
-0.00569049
0.0041894
-0.782854
0.784355
-0.00241879
0.00069255
-0.926245
0.927971
0.00131091
-0.00322601
-1.10017
1.10208
0.00540382
-0.0074391
-1.31037
1.3124
0.00968502
-0.0117062
-1.56506
1.56708
0.0135037
-0.0150643
-1.56314
1.5647
0.0161706
-0.0171141
-1.30609
1.30703
0.017786
-0.0183835
-1.09528
1.09588
0.0188555
-0.0192989
-0.922122
0.922566
0.0196937
-0.0201663
-0.780766
0.781239
0.0202775
-0.0197705
-0.659077
0.65857
0.0181929
-0.0150524
-0.521515
0.518374
0.0113003
-0.00714851
-0.338535
0.334383
0.0040732
-0.00171716
-0.157419
0.155063
0.000474689
-0.0259212
0.0254465
-0.0290733
0.0291032
-2.9905e-05
-0.000328144
0.00114439
-0.232028
0.231211
-0.00263395
0.00413874
-0.404488
0.402983
-0.00531568
0.00556309
-0.55201
0.551762
-0.00494431
0.00391287
-0.667259
0.668291
-0.00246535
0.000979005
-0.785845
0.787332
0.000799856
-0.00253859
-0.929535
0.931274
0.00454315
-0.00644321
-1.10384
1.10574
0.00858025
-0.010548
-1.31432
1.31629
0.0126686
-0.0145169
-1.56897
1.57082
0.0160806
-0.0173651
-1.56613
1.56742
0.0182059
-0.0188395
-1.30791
1.30854
0.0192333
-0.0195073
-1.09635
1.09663
0.0196712
-0.0198198
-0.922863
0.923011
0.0199162
-0.0199836
-0.781428
0.781495
0.0197776
-0.0189418
-0.657817
0.656981
0.017012
-0.0137051
-0.515245
0.511938
0.0101136
-0.00635709
-0.330498
0.326741
0.00364481
-0.00156833
-0.152895
0.150819
0.000448792
-0.025009
0.0245602
-0.0292056
0.0293806
-0.000174991
0.000700545
-0.000624919
-0.230775
0.230699
-1.33702e-05
0.000879643
-0.401831
0.400965
-0.00167358
0.00184671
-0.551637
0.551464
-0.00131053
0.000369131
-0.669396
0.670337
0.00104282
-0.00257286
-0.788815
0.790345
0.00444861
-0.00628055
-0.932888
0.93472
0.00837005
-0.0103182
-1.10752
1.10947
0.0124598
-0.0143755
-1.31813
1.32005
0.0163683
-0.0180186
-1.57251
1.57416
0.0193174
-0.020256
-1.56852
1.56946
0.0207577
-0.0210309
-1.30907
1.30934
0.021109
-0.0210739
-1.09682
1.09678
0.0209559
-0.0207582
-0.923014
0.922816
0.0205434
-0.0202734
-0.781289
0.781019
0.019658
-0.0182449
-0.655772
0.654359
0.0159747
-0.0125815
-0.508695
0.505302
0.00918118
-0.00577115
-0.323261
0.319851
0.00333856
-0.00145866
-0.148912
0.147032
0.000424556
-0.0241537
0.0237291
-0.0296191
0.0299146
-0.000295465
0.00170335
-0.00224553
-0.230924
0.231466
0.00244745
-0.00229282
-0.400518
0.400363
0.00207107
-0.00218531
-0.551578
0.551692
0.00283718
-0.00385509
-0.671442
0.67246
0.00534662
-0.00696028
-0.791847
0.79346
0.00892699
-0.0108303
-0.936384
0.938287
0.0129766
-0.0149499
-1.11127
1.11324
0.017086
-0.0189602
-1.32182
1.3237
0.0208582
-0.02235
-1.57566
1.57715
0.0234038
-0.02402
-1.57024
1.57086
0.0241797
-0.024044
-1.30949
1.30936
0.0237333
-0.0232597
-1.09656
1.09609
0.0227677
-0.0222033
-0.922377
0.921812
0.0216926
-0.0210306
-0.780373
0.779711
0.0199892
-0.0181929
-0.652775
0.650979
0.0157015
-0.0122423
-0.502053
0.498594
0.00893623
-0.00568369
-0.316653
0.313401
0.0033396
-0.0014803
-0.145248
0.143389
0.000434178
-0.0233381
0.0229039
-0.0302852
0.0307143
-0.000429082
0.00260304
-0.00374267
-0.232338
0.233478
0.00470456
-0.00526334
-0.400619
0.401177
0.0056692
-0.00617515
-0.552247
0.552753
0.00709451
-0.00833725
-0.673751
0.674994
0.010051
-0.011843
-0.795047
0.796839
0.0139693
-0.0159915
-0.940004
0.942026
0.0182595
-0.0203405
-1.11507
1.11715
0.0225744
-0.0244903
-1.32544
1.32736
0.0263432
-0.027679
-1.57847
1.57981
0.028488
-0.0287686
-1.57127
1.57155
0.0286138
-0.028089
-1.30907
1.30855
0.0274024
-0.0265048
-1.09539
1.09449
0.0256164
-0.0246484
-0.920977
0.920009
0.0237797
-0.0227377
-0.778664
0.777622
0.0213986
-0.0192341
-0.6491
0.646936
0.0164675
-0.0128211
-0.495275
0.491629
0.00944462
-0.0061251
-0.310278
0.306959
0.00366289
-0.00164195
-0.14155
0.139529
0.000482335
-0.0224919
0.0220096
-0.0312138
0.0317818
-0.000568046
0.00353921
-0.00525175
-0.234929
0.236641
0.00693641
-0.00814992
-0.402066
0.403279
0.00916025
-0.0100488
-0.553779
0.554667
0.0112394
-0.0127258
-0.67656
0.678046
0.0147235
-0.0167826
-0.798592
0.800652
0.0192179
-0.0215364
-0.943907
0.946226
0.0241351
-0.0265038
-1.11915
1.12152
0.0290107
-0.0311126
-1.32921
1.33131
0.0330524
-0.0343362
-1.58101
1.5823
0.0349792
-0.0349833
-1.57165
1.57165
0.0345131
-0.0336128
-1.30782
1.30692
0.0325437
-0.0312125
-1.09335
1.09201
0.0299466
-0.0285755
-0.918723
0.917352
0.0273488
-0.0258728
-0.776178
0.774702
0.0240954
-0.021441
-0.644687
0.642032
0.0182803
-0.0143038
-0.488101
0.484125
0.0106786
-0.00704847
-0.303682
0.300052
0.00426609
-0.00192436
-0.13746
0.135118
0.000565869
-0.0215365
0.0209706
-0.0324245
0.033171
-0.000746564
0.00468297
-0.00705068
-0.238686
0.241054
0.00954643
-0.0115025
-0.404894
0.40685
0.0132149
-0.0145619
-0.55615
0.557497
0.0160733
-0.0178251
-0.679865
0.681617
0.0201918
-0.0226664
-0.80269
0.805165
0.0256108
-0.0284018
-0.948485
0.951276
0.031491
-0.0342459
-1.12386
1.12661
0.0370816
-0.0393677
-1.33335
1.33563
0.0413736
-0.0425743
-1.58344
1.58465
0.0429778
-0.042613
-1.57143
1.57106
0.0417477
-0.0403899
-1.30576
1.30441
0.0389084
-0.0371696
-1.09041
1.08867
0.0355349
-0.0337397
-0.915602
0.913806
0.0320979
-0.0300402
-0.772773
0.770716
0.0277605
-0.0245531
-0.639275
0.636067
0.0209551
-0.0165499
-0.480264
0.475858
0.0124893
-0.0083198
-0.296399
0.29223
0.00505652
-0.00228312
-0.132693
0.12992
0.00067046
-0.02041
0.0197395
-0.0339963
0.0349887
-0.000992367
0.00620017
-0.00937331
-0.243772
0.246946
0.0128146
-0.0156458
-0.409347
0.412178
0.0182427
-0.0203109
-0.559676
0.561744
0.0224799
-0.0247876
-0.68385
0.686157
0.0277799
-0.0308334
-0.807639
0.810693
0.03438
-0.0376834
-0.954003
0.957307
0.0412614
-0.0443661
-1.1293
1.13241
0.0474441
-0.0498099
-1.33779
1.34015
0.0517329
-0.0526676
-1.58561
1.58655
0.05265
-0.0517229
-1.57038
1.56945
0.0503205
-0.0483973
-1.30273
1.30081
0.0464333
-0.0441246
-1.08653
1.08423
0.0419697
-0.0396487
-0.911526
0.909205
0.0375388
-0.0349342
-0.768189
0.765585
0.0321845
-0.0284789
-0.632805
0.6291
0.0244227
-0.0194294
-0.471576
0.466583
0.0147229
-0.00981156
-0.287993
0.283082
0.00595598
-0.00268625
-0.127049
0.123779
0.000788382
-0.0190706
0.0182823
-0.0360597
0.0374088
-0.00134907
0.00832201
-0.0125529
-0.250485
0.254716
0.0171362
-0.0209559
-0.415691
0.419511
0.0245792
-0.0275518
-0.564915
0.567887
0.0306949
-0.0338839
-0.689156
0.692345
0.0377679
-0.0415423
-0.813762
0.817537
0.0457995
-0.0496534
-0.960527
0.96438
0.053713
-0.0571293
-1.13539
1.13881
0.0603934
-0.0627679
-1.34232
1.34469
0.0644838
-0.0650074
-1.58713
1.58766
0.0643847
-0.0626922
-1.56807
1.56637
0.0605254
-0.0577672
-1.29842
1.29566
0.0550976
-0.0521834
-1.08151
1.07859
0.0496031
-0.0468269
-0.906343
0.903566
0.0442978
-0.0412545
-0.762518
0.759475
0.038083
-0.0338058
-0.625366
0.621088
0.0290128
-0.0230072
-0.461605
0.455599
0.0173393
-0.0114952
-0.278065
0.272221
0.00695684
-0.00312922
-0.120423
0.116596
0.00091478
-0.0175062
0.0165914
-0.0388182
0.040685
-0.00186671
0.0113383
-0.0169884
-0.259295
0.264945
0.022967
-0.0278512
-0.424236
0.42912
0.0324679
-0.0363608
-0.572243
0.576136
0.0405774
-0.0447728
-0.696327
0.700522
0.0497319
-0.0544129
-0.821373
0.826054
0.0595218
-0.0640232
-0.968155
0.972657
0.0686536
-0.072464
-1.14209
1.1459
0.0760077
-0.0784598
-1.34685
1.34931
0.0800338
-0.0802059
-1.58781
1.58798
0.0790678
-0.0766934
-1.56421
1.56184
0.0738388
-0.0702635
-1.29239
1.28881
0.0667916
-0.0629816
-1.07504
1.07123
0.0596416
-0.0562765
-0.900191
0.896826
0.053361
-0.0498624
-0.75593
0.752432
0.0460214
-0.040634
-0.616595
0.611207
0.0345618
-0.027113
-0.449472
0.442023
0.0202894
-0.0133995
-0.266305
0.259415
0.00808772
-0.00362205
-0.112689
0.108223
0.00105146
-0.0156939
0.0146425
-0.0425772
0.0452603
-0.00268308
0.0158948
-0.0235183
-0.270914
0.278538
0.0313082
-0.0374685
-0.435385
0.441545
0.0431579
-0.0479504
-0.581721
0.586514
0.0532143
-0.0584393
-0.705501
0.710726
0.0644932
-0.0700683
-0.830759
0.836334
0.0760574
-0.0812759
-0.977086
0.982305
0.0865801
-0.0908806
-1.1496
1.1539
0.0947797
-0.0973754
-1.35156
1.35416
0.0988889
-0.0988017
-1.58782
1.58773
0.0972673
-0.0943774
-1.55907
1.55618
0.0910014
-0.0868098
-1.28483
1.28064
0.0827353
-0.078198
-1.06682
1.06228
0.0741396
-0.0698728
-0.892569
0.888302
0.0659279
-0.061237
-0.748079
0.743388
0.0558646
-0.0485636
-0.605173
0.597872
0.040785
-0.0317319
-0.434435
0.425382
0.023682
-0.0156188
-0.252537
0.244474
0.00939441
-0.00417573
-0.103695
0.0984768
0.00119868
-0.0136187
0.01242
-0.0478936
0.0519966
-0.00410292
0.0232226
-0.0336697
-0.286543
0.29699
0.0439749
-0.0519886
-0.450054
0.458067
0.0590601
-0.064829
-0.593467
0.599235
0.0711559
-0.0773673
-0.716628
0.72284
0.0843756
-0.0907393
-0.84181
0.848173
0.0975351
-0.103392
-0.987414
0.993271
0.109247
-0.113868
-1.15802
1.16264
0.1179
-0.120419
-1.35645
1.35897
0.121626
-0.121056
-1.58722
1.58665
0.118906
-0.11532
-1.55283
1.54925
0.111311
-0.106409
-1.27603
1.27113
0.101655
-0.0963012
-1.05713
1.05178
0.091366
-0.0858359
-0.88288
0.87735
0.0803687
-0.073639
-0.737147
0.730418
0.0662957
-0.0569553
-0.589675
0.580335
0.0475867
-0.0370372
-0.416356
0.405806
0.02767
-0.0182
-0.236534
0.227064
0.0108619
-0.00476253
-0.0932548
0.0871554
0.00134198
-0.0112692
0.00992725
-0.0558382
0.0629881
-0.00714998
0.0365537
-0.0512882
-0.308381
0.323115
0.0652288
-0.0757771
-0.469839
0.480387
0.0843957
-0.0911937
-0.607757
0.614555
0.0986764
-0.105734
-0.729465
0.736522
0.113417
-0.120226
-0.854267
0.861077
0.127343
-0.133308
-0.998798
1.00476
0.139058
-0.143344
-1.16678
1.17106
0.14678
-0.148518
-1.36084
1.36257
0.148683
-0.146962
-1.58532
1.5836
0.1436
-0.138765
-1.54492
1.54009
0.133652
-0.127565
-1.26558
1.25949
0.121721
-0.115124
-1.04561
1.03901
0.108897
-0.101728
-0.870332
0.863163
0.0946119
-0.0859855
-0.721842
0.713215
0.0770451
-0.066163
-0.570146
0.559264
0.0554782
-0.0433946
-0.395374
0.38329
0.0324435
-0.0212536
-0.217857
0.206668
0.0125538
-0.00540748
-0.0812289
0.0740826
0.00148161
-0.00867466
0.00719305
-0.0697321
0.0735709
-0.00383878
0.0273366
-0.0400527
-0.340459
0.353175
0.0524475
-0.0618902
-0.49602
0.505463
0.0701931
-0.078363
-0.624625
0.632795
0.0877025
-0.0961021
-0.743267
0.751667
0.105825
-0.114773
-0.867094
0.876041
0.124488
-0.133214
-1.00982
1.01855
0.142337
-0.150094
-1.1743
1.18205
0.157635
-0.163381
-1.36316
1.36891
0.167987
-0.170172
-1.58064
1.58283
0.169765
-0.167122
-1.53408
1.53143
0.162965
-0.156893
-1.25241
1.24633
0.150416
-0.141867
-1.03133
1.02279
0.13338
-0.123209
-0.854361
0.84419
0.113178
-0.101391
-0.702675
0.690888
0.0893625
-0.0752033
-0.547507
0.533348
0.0617315
-0.0464485
-0.371016
0.355733
0.0330577
-0.0201377
-0.195716
0.182796
0.0109328
-0.0042579
-0.0676406
0.0609658
0.00100596
-0.00595606
0.0049501
-0.080539
0.0784291
0.00210997
0.00568928
-0.0137344
-0.36877
0.376815
0.0229865
-0.0298239
-0.519583
0.526421
0.036924
-0.0440898
-0.64307
0.650236
0.0526926
-0.0606565
-0.759971
0.767935
0.0693839
-0.0776112
-0.884508
0.892735
0.0865055
-0.0941512
-1.02697
1.03462
0.102315
-0.108876
-1.18957
1.19613
0.115154
-0.11956
-1.37423
1.37863
0.122322
-0.122734
-1.58385
1.58426
0.120451
-0.115807
-1.5274
1.52276
0.109681
-0.101605
-1.23904
1.23096
0.0934093
-0.0835263
-1.01306
1.00318
0.0738334
-0.0627154
-0.831863
0.820745
0.0526302
-0.0423169
-0.675559
0.665246
0.0335449
-0.0242175
-0.517273
0.507946
0.0162736
-0.00919093
-0.339936
0.332854
0.00456223
-0.0013672
-0.170284
0.167089
-7.93084e-05
0.00045394
-0.0545207
0.054146
-0.000267133
-0.00373898
0.00400611
-0.0814361
0.0784913
0.00294474
-0.00287571
-0.00154804
-0.387677
0.392101
0.00758948
-0.0128005
-0.537299
0.54251
0.0185903
-0.0248853
-0.659051
0.665346
0.0323935
-0.0393529
-0.775325
0.782284
0.0471704
-0.0543412
-0.900295
0.907466
0.0618212
-0.0685832
-1.04205
1.04881
0.0755645
-0.0812179
-1.20218
1.20784
0.0861103
-0.0892139
-1.3822
1.38531
0.0908401
-0.0900019
-1.58366
1.58283
0.0865255
-0.0807755
-1.51707
1.51132
0.0739142
-0.06546
-1.22234
1.21388
0.0568013
-0.0470208
-0.992602
0.982821
0.0377928
-0.0276205
-0.809357
0.799184
0.0188762
-0.0101868
-0.652902
0.644212
0.00347716
0.00296493
-0.496639
0.490197
-0.00713524
0.00908416
-0.323681
0.321732
-0.00888922
0.00724608
-0.161885
0.163528
-0.00506598
0.00258706
-0.0529891
0.055468
-0.000854473
-0.00382403
0.0046785
-0.0799787
0.077222
0.0027567
-0.00594482
0.00391973
-0.400142
0.402167
-0.000282876
-0.00383925
-0.55086
0.554982
0.00909189
-0.0144967
-0.672427
0.677832
0.0210229
-0.0270978
-0.788946
0.795021
0.0338426
-0.0400109
-0.914205
0.920373
0.0467902
-0.0524956
-1.05514
1.06084
0.0585458
-0.0629641
-1.21303
1.21745
0.0670136
-0.0693989
-1.38808
1.39047
0.070151
-0.068441
-1.58138
1.57967
0.0646777
-0.0588852
-1.50489
1.4991
0.0521748
-0.0437679
-1.20518
1.19677
0.0357054
-0.0267774
-0.972766
0.963838
0.0183617
-0.00953168
-0.788807
0.779977
0.00170375
0.00560281
-0.633633
0.626326
-0.0110073
0.0152959
-0.481863
0.477575
-0.0170674
0.016339
-0.316319
0.317047
-0.0139007
0.0102216
-0.162879
0.166558
-0.00681866
0.00330005
-0.0568179
0.0603365
-0.00103184
-0.00502481
0.00605665
-0.0784287
0.0760671
0.00236156
-0.00664821
0.00601164
-0.408501
0.409137
-0.00325863
0.000259857
-0.562149
0.565148
0.00427217
-0.00932347
-0.683894
0.688946
0.0149107
-0.0203602
-0.800675
0.806124
0.0262742
-0.0316718
-0.926199
0.931596
0.0375097
-0.0425962
-1.06643
1.07151
0.047707
-0.0517427
-1.22171
1.22575
0.0551634
-0.057073
-1.39246
1.39437
0.0574431
-0.0555535
-1.57775
1.57586
0.0518369
-0.0461593
-1.49267
1.48699
0.0399546
-0.032451
-1.1885
1.18099
0.0252377
-0.0171951
-0.954828
0.946785
0.00992477
-0.00225674
-0.770928
0.76326
-0.00425355
0.0103717
-0.617754
0.611636
-0.0146439
0.0176547
-0.470756
0.467745
-0.0187881
0.0174241
-0.313755
0.315119
-0.0143771
0.0104615
-0.167618
0.171533
-0.00688544
0.00325808
-0.0624335
0.0660608
-0.00101829
-0.00657293
0.00759122
-0.0771227
0.0751382
0.00198451
-0.00627559
0.00599539
-0.414322
0.414602
-0.00440637
0.00181032
-0.570974
0.57357
0.00265272
-0.00706479
-0.693885
0.698297
0.0119897
-0.0168299
-0.811015
0.815855
0.0221783
-0.0270654
-0.936755
0.941642
0.0324614
-0.0369559
-1.07636
1.08085
0.0415887
-0.0452471
-1.22952
1.23317
0.0482785
-0.0499328
-1.39602
1.39768
0.0501522
-0.0486779
-1.57392
1.57244
0.0451908
-0.0401377
-1.481
1.47595
0.0345143
-0.0278057
-1.17351
1.1668
0.0216624
-0.0145267
-0.938876
0.93174
0.00818089
-0.00167471
-0.755576
0.74907
-0.00388171
0.0090759
-0.604621
0.599426
-0.0126916
0.0152779
-0.462317
0.459731
-0.0159402
0.0147865
-0.312889
0.314043
-0.0123359
0.00889406
-0.172684
0.176126
-0.00577625
0.00276497
-0.0678677
0.070879
-0.000876512
-0.00802308
0.00889959
-0.0762166
0.0746934
0.00152323
-0.0052648
0.00520785
-0.418746
0.418803
-0.00375828
0.00168678
-0.578918
0.58099
0.0024367
-0.00649581
-0.702781
0.70684
0.0112901
-0.0155596
-0.820484
0.824753
0.020353
-0.0247605
-0.946598
0.951006
0.0299514
-0.0340936
-1.08543
1.08957
0.0382708
-0.0417892
-1.23668
1.2402
0.0450381
-0.0466292
-1.39938
1.40097
0.0470421
-0.0457181
-1.57063
1.56931
0.0429133
-0.038187
-1.47082
1.46609
0.0333364
-0.0275293
-1.16011
1.15431
0.0220163
-0.0159693
-0.924837
0.91879
0.0104399
-0.00466523
-0.74241
0.736635
0.000103755
0.00442134
-0.593417
0.588891
-0.00761653
0.00969534
-0.45505
0.452971
-0.0104328
0.00990979
-0.312292
0.312815
-0.00819574
0.00574792
-0.176645
0.179093
-0.00366828
0.00178248
-0.0719345
0.0738203
-0.000591986
-0.00913886
0.00973084
-0.0758308
0.0746493
0.00118154
-0.0041314
0.00413415
-0.422363
0.42236
-0.00268462
0.000652609
-0.586018
0.58805
0.00322817
-0.00693444
-0.710948
0.714654
0.0111382
-0.0153375
-0.829107
0.833306
0.0198493
-0.0244575
-0.955315
0.959923
0.0289999
-0.0330164
-1.09385
1.09787
0.0373786
-0.040717
-1.24364
1.24698
0.0435752
-0.0456622
-1.40252
1.4046
0.0463848
-0.0455027
-1.56809
1.56721
0.0430626
-0.0391515
-1.46163
1.45772
0.0348775
-0.0297117
-1.14832
1.14316
0.0248852
-0.0195059
-0.912747
0.907368
0.0146342
-0.00970302
-0.730967
0.726036
0.00541349
-0.00140961
-0.583689
0.579685
-0.00145158
0.00359378
-0.448921
0.446779
-0.00450738
0.00437175
-0.310754
0.31089
-0.00368378
0.00256918
-0.178556
0.17967
-0.00163806
0.000809966
-0.0739047
0.0747328
-0.000301216
-0.00971107
0.0100123
-0.075971
0.0749879
0.000983126
-0.00285494
0.00262866
-0.42571
0.425937
-0.00133944
-0.000802951
-0.592577
0.59472
0.00439067
-0.00802551
-0.71868
0.722315
0.0121298
-0.0160021
-0.837415
0.841287
0.0206965
-0.024591
-0.964045
0.96794
0.0291572
-0.0330457
-1.10208
1.10597
0.0373506
-0.040936
-1.25034
1.25393
0.0441448
-0.0460979
-1.40649
1.40845
0.0472625
-0.0468935
-1.5663
1.56593
0.0452039
-0.0417332
-1.45374
1.45027
0.0380074
-0.0333635
-1.13813
1.13348
0.0290351
-0.024098
-0.90183
0.896893
0.0197648
-0.0151595
-0.720882
0.716277
0.0112318
-0.00742948
-0.575111
0.571309
0.00452137
-0.00237159
-0.442928
0.440778
0.00102331
-0.000461471
-0.308167
0.307605
0.000100996
2.74129e-05
-0.178187
0.178058
-9.74695e-05
0.000185837
-0.0739272
0.0738389
-0.000131675
-0.00975712
0.00988879
-0.0763803
0.0757013
0.000679043
-0.00173562
0.00114683
-0.429226
0.429815
-7.40554e-05
-0.00238287
-0.598387
0.600843
0.00564823
-0.00918611
-0.725994
0.729532
0.013168
-0.0172122
-0.845118
0.849162
0.021361
-0.0254564
-0.972102
0.976198
0.0300328
-0.0337608
-1.11032
1.11405
0.0382033
-0.0417933
-1.25735
1.26094
0.0451222
-0.0476618
-1.41084
1.41338
0.049389
-0.0493825
-1.56564
1.56563
0.0480192
-0.0453136
-1.44698
1.44428
0.0421543
-0.0378913
-1.12871
1.12445
0.0338194
-0.0294085
-0.891869
0.887459
0.0250115
-0.0208019
-0.711389
0.70718
0.0170574
-0.0132683
-0.567166
0.563376
0.0104277
-0.00785537
-0.436824
0.434252
0.00609854
-0.00463907
-0.30449
0.30303
0.00345632
-0.00219825
-0.175793
0.174535
0.00111024
-0.000287962
-0.0722716
0.0714493
-2.16893e-05
-0.00935431
0.009376
-0.0771822
0.0766507
0.000531515
-0.000803312
0.000323005
-0.432963
0.433443
0.00149234
-0.00371128
-0.604445
0.606664
0.00711429
-0.0105419
-0.732872
0.7363
0.0144043
-0.0180942
-0.852963
0.856653
0.0224041
-0.0262278
-0.980353
0.984177
0.0307919
-0.0349814
-1.11826
1.12245
0.0391121
-0.0430667
-1.26461
1.26856
0.0468604
-0.0495456
-1.41585
1.41854
0.0517068
-0.0525337
-1.56587
1.56669
0.0516578
-0.0495942
-1.44144
1.43938
0.0466463
-0.0428116
-1.12019
1.11635
0.0390945
-0.0347856
-0.882608
0.878299
0.0306916
-0.0265241
-0.702426
0.698259
0.0228284
-0.0189249
-0.559125
0.555222
0.015797
-0.012905
-0.430303
0.427411
0.0104442
-0.0081972
-0.299325
0.297078
0.00616125
-0.00399886
-0.171457
0.169295
0.00223648
-0.000823269
-0.0693229
0.0679097
0.000147807
-0.00870801
0.00856021
-0.0782304
0.0778733
0.000357126
0.000199938
-0.000946057
-0.436781
0.437527
0.0025913
-0.00508534
-0.610071
0.612565
0.00841142
-0.0116938
-0.739549
0.742832
0.0156534
-0.0192197
-0.860383
0.863949
0.0234075
-0.0273778
-0.988516
0.992486
0.0318761
-0.0360582
-1.12652
1.13071
0.0404377
-0.0444502
-1.27247
1.27648
0.0484681
-0.0519313
-1.42153
1.425
0.0545823
-0.0557476
-1.56748
1.56865
0.05559
-0.0538644
-1.43721
1.43548
0.0514529
-0.0480959
-1.11241
1.10906
0.0443903
-0.0402272
-0.873663
0.8695
0.0362326
-0.0319507
-0.69366
0.689378
0.0282981
-0.0242264
-0.551134
0.547062
0.020901
-0.017438
-0.423198
0.419735
0.0144952
-0.0114566
-0.292735
0.289697
0.00853126
-0.00556143
-0.165425
0.162455
0.00319128
-0.00125222
-0.0653075
0.0633685
0.000267267
-0.00783532
0.00756805
-0.0794824