/*--------------------------------*- C++ -*----------------------------------*\
  =========                 |
  \\      /  F ield         | OpenFOAM: The Open Source CFD Toolbox
   \\    /   O peration     | Website:  https://openfoam.org
    \\  /    A nd           | Version:  9
     \\/     M anipulation  |
\*---------------------------------------------------------------------------*/
FoamFile
{
    format      ascii;
    class       volVectorField;
    location    "6";
    object      U;
}
// * * * * * * * * * * * * * * * * * * * * * * * * * * * * * * * * * * * * * //

dimensions      [0 1 -1 0 0 0 0];

internalField   nonuniform List<vector> 
8800
(
(0.979563 -0.0914061 0)
(1.0022 -0.058836 0)
(0.999983 -0.0323416 0)
(0.999906 -0.0164903 0)
(0.999381 -0.0086244 0)
(0.999465 -0.00499818 0)
(0.999743 -0.00309852 0)
(0.999904 -0.00189429 0)
(1.00001 -0.000923457 0)
(1.00005 -0.000126345 0)
(1.00004 0.000588496 0)
(0.999965 0.00147594 0)
(0.999827 0.00251241 0)
(0.999623 0.00397307 0)
(0.999277 0.00649809 0)
(0.999571 0.0118601 0)
(1.00015 0.023217 0)
(0.99929 0.0432785 0)
(1.00665 0.0791768 0)
(0.774986 0.0478644 0)
(0.360999 -0.0143936 0)
(1.04794 -0.0708143 0)
(1.08803 -0.063446 0)
(1.04832 -0.0474266 0)
(1.02507 -0.0344519 0)
(1.01288 -0.0232609 0)
(1.00646 -0.0146043 0)
(1.00324 -0.00863657 0)
(1.00177 -0.00467569 0)
(1.00122 -0.00183668 0)
(1.00118 0.000842499 0)
(1.00138 0.00348633 0)
(1.00232 0.00675346 0)
(1.00452 0.011574 0)
(1.00917 0.0188514 0)
(1.01796 0.0287443 0)
(1.03507 0.0410373 0)
(1.06617 0.0546175 0)
(1.09521 0.0690454 0)
(0.847813 0.0547763 0)
(0.225537 -0.00109554 0)
(1.08041 -0.0451187 0)
(1.10168 -0.0433978 0)
(1.06515 -0.0348567 0)
(1.0401 -0.0276717 0)
(1.02374 -0.021279 0)
(1.01395 -0.0155626 0)
(1.00843 -0.0102137 0)
(1.00555 -0.00537822 0)
(1.00458 -0.000796131 0)
(1.00484 0.0037417 0)
(1.0067 0.00826202 0)
(1.01067 0.0132767 0)
(1.01798 0.0187241 0)
(1.0307 0.0245461 0)
(1.05117 0.0314384 0)
(1.08179 0.0390498 0)
(1.10943 0.046107 0)
(0.951788 0.0367173 0)
(0.225321 0.00110238 0)
(0.196538 -7.59572e-06 0)
(1.03186 -0.0204472 0)
(1.10155 -0.0280712 0)
(1.07226 -0.0285334 0)
(1.04709 -0.0263942 0)
(1.03117 -0.0226761 0)
(1.02072 -0.0178522 0)
(1.0141 -0.0125435 0)
(1.01023 -0.00690841 0)
(1.00858 -0.000998829 0)
(1.00906 0.00482178 0)
(1.01168 0.0105569 0)
(1.01679 0.0159096 0)
(1.02513 0.0209279 0)
(1.038 0.0251779 0)
(1.05781 0.0280513 0)
(1.08862 0.0289276 0)
(1.09513 0.0260372 0)
(0.864046 0.0119405 0)
(0.196195 1.41385e-05 0)
(0.193372 7.09913e-05 0)
(0.993403 -0.00708159 0)
(1.08391 -0.0165767 0)
(1.06843 -0.022209 0)
(1.04924 -0.0237182 0)
(1.03536 -0.0222516 0)
(1.02558 -0.0187672 0)
(1.01885 -0.0137972 0)
(1.01458 -0.00779399 0)
(1.01249 -0.000936978 0)
(1.01309 0.00602358 0)
(1.0161 0.0122712 0)
(1.02145 0.0175965 0)
(1.02953 0.0216591 0)
(1.04108 0.0240243 0)
(1.05757 0.0239237 0)
(1.07879 0.0202742 0)
(1.06703 0.0124579 0)
(0.825353 0.00259048 0)
(0.192836 -6.55657e-05 0)
(0.192763 1.66606e-05 0)
(0.969886 -0.00332786 0)
(1.06293 -0.0104203 0)
(1.05921 -0.0163508 0)
(1.04853 -0.0190451 0)
(1.03925 -0.0188667 0)
(1.03176 -0.0165591 0)
(1.02588 -0.0125605 0)
(1.02172 -0.00724389 0)
(1.0196 -0.000622149 0)
(1.02012 0.00623943 0)
(1.02303 0.0120479 0)
(1.02789 0.0164542 0)
(1.03443 0.0193733 0)
(1.0427 0.0204514 0)
(1.05271 0.0189552 0)
(1.06288 0.0143683 0)
(1.04155 0.00709881 0)
(0.808942 0.00117722 0)
(0.191988 -6.86384e-06 0)
(0.192734 2.3258e-05 0)
(0.957578 -0.00128588 0)
(1.04772 -0.00505733 0)
(1.05 -0.0090559 0)
(1.04486 -0.0117308 0)
(1.03924 -0.012712 0)
(1.03387 -0.0119111 0)
(1.0291 -0.00942126 0)
(1.02539 -0.00540672 0)
(1.02348 -1.05662e-05 0)
(1.02381 0.00561726 0)
(1.02636 0.0101167 0)
(1.03023 0.0130519 0)
(1.03517 0.0143122 0)
(1.04059 0.0138433 0)
(1.04594 0.0116381 0)
(1.04959 0.00790392 0)
(1.02524 0.00338754 0)
(0.80137 0.000475683 0)
(0.191671 -1.0227e-05 0)
(0.192734 8.92139e-06 0)
(0.952136 -0.000606481 0)
(1.03986 -0.00236745 0)
(1.04417 -0.00450462 0)
(1.04195 -0.00625716 0)
(1.03898 -0.00719886 0)
(1.03566 -0.0070743 0)
(1.03229 -0.00570647 0)
(1.0294 -0.00303093 0)
(1.02776 0.000763195 0)
(1.02785 0.00470063 0)
(1.02969 0.00759628 0)
(1.03228 0.00915997 0)
(1.03538 0.00938571 0)
(1.03835 0.00845613 0)
(1.04084 0.00662612 0)
(1.04168 0.00424259 0)
(1.01699 0.00183322 0)
(0.797705 0.000352486 0)
(0.191363 6.59198e-06 0)
(0.192802 1.10756e-05 0)
(0.949675 -0.000193683 0)
(1.03606 -0.000974439 0)
(1.04091 -0.00200368 0)
(1.03987 -0.00294787 0)
(1.03822 -0.00354263 0)
(1.03615 -0.00355669 0)
(1.03382 -0.00276578 0)
(1.03163 -0.00103643 0)
(1.03016 0.00149113 0)
(1.02999 0.00407063 0)
(1.0311 0.00576219 0)
(1.03269 0.00641711 0)
(1.03448 0.00617043 0)
(1.03606 0.00524673 0)
(1.03723 0.00391877 0)
(1.0371 0.00245038 0)
(1.01261 0.00110495 0)
(0.795499 0.000255715 0)
(0.191045 7.63106e-06 0)
(0.192999 1.55434e-05 0)
(0.948733 4.77992e-05 0)
(1.03442 -0.000243329 0)
(1.03941 -0.000664896 0)
(1.03889 -0.0010584 0)
(1.03791 -0.00128864 0)
(1.03656 -0.00120409 0)
(1.03492 -0.000633554 0)
(1.03323 0.000532807 0)
(1.03188 0.00221531 0)
(1.03142 0.0038344 0)
(1.03187 0.00471575 0)
(1.03268 0.00485997 0)
(1.03358 0.0044241 0)
(1.03435 0.00361681 0)
(1.03488 0.00264753 0)
(1.03434 0.00167251 0)
(1.01001 0.000813946 0)
(0.793971 0.00023132 0)
(0.190736 1.14746e-05 0)
(0.193302 1.7068e-05 0)
(0.948676 0.000206107 0)
(1.03389 0.000201913 0)
(1.03892 0.00014213 0)
(1.03861 0.000111451 0)
(1.03795 0.000179234 0)
(1.03698 0.000432149 0)
(1.03573 0.000969614 0)
(1.03431 0.00185485 0)
(1.03297 0.003011 0)
(1.0322 0.00399088 0)
(1.03207 0.00440501 0)
(1.03233 0.00418165 0)
(1.03266 0.00363404 0)
(1.03295 0.00289865 0)
(1.03314 0.00211223 0)
(1.03243 0.00136659 0)
(1.00817 0.000718429 0)
(0.792683 0.000239244 0)
(0.190384 1.51254e-05 0)
(0.193698 2.13902e-05 0)
(0.949141 0.000353108 0)
(1.03409 0.000544164 0)
(1.03912 0.000728138 0)
(1.03888 0.000960917 0)
(1.03835 0.00127517 0)
(1.03755 0.00171395 0)
(1.03646 0.00231913 0)
(1.03513 0.00309734 0)
(1.03369 0.00394411 0)
(1.03258 0.00449167 0)
(1.032 0.00450888 0)
(1.03176 0.00410186 0)
(1.0317 0.00344864 0)
(1.03169 0.00271026 0)
(1.03168 0.00198064 0)
(1.03085 0.00131305 0)
(1.00662 0.000733831 0)
(0.791417 0.000271837 0)
(0.189964 1.95509e-05 0)
(0.194221 2.75944e-05 0)
(0.950098 0.000503901 0)
(1.03481 0.000862796 0)
(1.03981 0.00124671 0)
(1.03959 0.00169969 0)
(1.03909 0.00223942 0)
(1.03832 0.00287732 0)
(1.03724 0.00361229 0)
(1.03583 0.00439784 0)
(1.03416 0.0050849 0)
(1.03266 0.00533917 0)
(1.03165 0.00504887 0)
(1.03102 0.00444876 0)
(1.03064 0.00367673 0)
(1.03041 0.00286892 0)
(1.03026 0.00210508 0)
(1.02935 0.00142182 0)
(1.00509 0.000827907 0)
(0.790025 0.000326278 0)
(0.189448 2.49878e-05 0)
(0.1949 3.49873e-05 0)
(0.951517 0.00067136 0)
(1.036 0.00119705 0)
(1.04096 0.00177557 0)
(1.04071 0.00244805 0)
(1.04017 0.0032204 0)
(1.03934 0.00408468 0)
(1.03814 0.00500317 0)
(1.03652 0.00588072 0)
(1.0345 0.00651098 0)
(1.03253 0.00656186 0)
(1.03106 0.00603844 0)
(1.03006 0.00520163 0)
(1.02941 0.0042484 0)
(1.02899 0.00330164 0)
(1.02871 0.00242881 0)
(1.02773 0.00165869 0)
(1.0034 0.000987951 0)
(0.788385 0.000401861 0)
(0.188804 3.17013e-05 0)
(0.195773 4.48374e-05 0)
(0.953441 0.000876973 0)
(1.03769 0.00158905 0)
(1.04258 0.00238116 0)
(1.04227 0.00329533 0)
(1.04164 0.00433211 0)
(1.04066 0.00546496 0)
(1.03923 0.00662496 0)
(1.03727 0.00766492 0)
(1.03476 0.00831135 0)
(1.03221 0.00820166 0)
(1.03023 0.00743048 0)
(1.02884 0.00633052 0)
(1.02791 0.00513789 0)
(1.0273 0.00398477 0)
(1.02691 0.00293644 0)
(1.02585 0.00201721 0)
(1.00142 0.00121563 0)
(0.786381 0.000502273 0)
(0.187995 4.00956e-05 0)
(0.196898 5.77962e-05 0)
(0.955974 0.00113738 0)
(1.03995 0.00207337 0)
(1.04475 0.00311834 0)
(1.04435 0.0043205 0)
(1.04356 0.00567528 0)
(1.04235 0.00713912 0)
(1.04058 0.00860839 0)
(1.03814 0.0098794 0)
(1.03497 0.0105964 0)
(1.0317 0.0103385 0)
(1.02912 0.00928428 0)
(1.02729 0.00786554 0)
(1.02604 0.00636268 0)
(1.02523 0.00492775 0)
(1.02471 0.00363335 0)
(1.02356 0.00250265 0)
(0.998997 0.00151642 0)
(0.78389 0.000630634 0)
(0.186977 5.04748e-05 0)
(0.198352 7.48942e-05 0)
(0.959267 0.00147272 0)
(1.0429 0.00268917 0)
(1.04758 0.00404822 0)
(1.04704 0.00560776 0)
(1.04604 0.00735829 0)
(1.04451 0.00923603 0)
(1.04228 0.0110982 0)
(1.03919 0.0126733 0)
(1.03516 0.0135033 0)
(1.03099 0.0130854 0)
(1.02767 0.0116902 0)
(1.02531 0.009871 0)
(1.0237 0.00796933 0)
(1.02264 0.0061671 0)
(1.02197 0.00454718 0)
(1.02073 0.00313483 0)
(0.995984 0.00190362 0)
(0.780765 0.000793596 0)
(0.185696 6.34516e-05 0)
(0.20024 9.76313e-05 0)
(0.963529 0.00191004 0)
(1.04672 0.00348586 0)
(1.05124 0.00524524 0)
(1.05052 0.00725825 0)
(1.04923 0.00950933 0)
(1.04727 0.0119101 0)
(1.04441 0.0142682 0)
(1.04046 0.0162274 0)
(1.03533 0.0172036 0)
(1.03003 0.0165901 0)
(1.0258 0.0147683 0)
(1.0228 0.0124418 0)
(1.02074 0.0100309 0)
(1.0194 0.00775731 0)
(1.01854 0.00571913 0)
(1.01718 0.0039447 0)
(0.992205 0.00239669 0)
(0.776832 0.000998851 0)
(0.184085 7.95679e-05 0)
(0.202705 0.00012825 0)
(0.969039 0.0024884 0)
(1.05165 0.0045329 0)
(1.05596 0.00681029 0)
(1.05499 0.00940498 0)
(1.05331 0.0122947 0)
(1.05076 0.015358 0)
(1.04707 0.0183369 0)
(1.04201 0.0207681 0)
(1.03547 0.0219117 0)
(1.02874 0.0210389 0)
(1.0234 0.0186731 0)
(1.0196 0.0157031 0)
(1.017 0.0126479 0)
(1.0153 0.00977631 0)
(1.01422 0.00720612 0)
(1.01271 0.00496985 0)
(0.987445 0.00301889 0)
(0.771877 0.00125654 0)
(0.182062 9.95209e-05 0)
(0.20595 0.000170505 0)
(0.976171 0.00326627 0)
(1.05799 0.00593489 0)
(1.06203 0.00889047 0)
(1.06072 0.0122337 0)
(1.05851 0.0159383 0)
(1.05516 0.0198391 0)
(1.05037 0.0235885 0)
(1.04385 0.0265833 0)
(1.03553 0.0278949 0)
(1.02703 0.0266631 0)
(1.02031 0.0236003 0)
(1.01553 0.0198174 0)
(1.01227 0.0159503 0)
(1.01013 0.012326 0)
(1.00878 0.00908599 0)
(1.00707 0.00626525 0)
(0.981446 0.00380157 0)
(0.765636 0.00157811 0)
(0.179528 0.000124199 0)
(0.210284 0.000232569 0)
(0.985433 0.00434864 0)
(1.06615 0.00786589 0)
(1.06982 0.0117032 0)
(1.06804 0.0159976 0)
(1.06508 0.0207417 0)
(1.06065 0.0257006 0)
(1.05439 0.0303928 0)
(1.04599 0.0340341 0)
(1.03542 0.0354785 0)
(1.02473 0.033742 0)
(1.01632 0.029786 0)
(1.01035 0.0249851 0)
(1.00628 0.0201069 0)
(1.00361 0.0155466 0)
(1.00192 0.0114715 0)
(0.999988 0.00791617 0)
(0.973892 0.00479871 0)
(0.757772 0.00198653 0)
(0.176352 0.000155865 0)
(0.216198 0.000332165 0)
(0.997579 0.00593414 0)
(1.07676 0.0106004 0)
(1.07996 0.0155372 0)
(1.07745 0.0210236 0)
(1.07339 0.0271037 0)
(1.06743 0.0334025 0)
(1.05918 0.0392262 0)
(1.04835 0.0435666 0)
(1.03498 0.0450478 0)
(1.02163 0.0426008 0)
(1.01121 0.0375137 0)
(1.00379 0.0314565 0)
(0.99871 0.0253381 0)
(0.995376 0.0196323 0)
(0.993284 0.014534 0)
(0.991077 0.0100656 0)
(0.964376 0.00610626 0)
(0.747826 0.00252101 0)
(0.172357 0.000199202 0)
(0.224514 0.000499569 0)
(1.01383 0.00836597 0)
(1.09097 0.0145023 0)
(1.09346 0.0207428 0)
(1.08976 0.0277676 0)
(1.08398 0.0356234 0)
(1.07582 0.0436076 0)
(1.06485 0.0507248 0)
(1.05087 0.0557293 0)
(1.03404 0.0570481 0)
(1.01753 0.0536101 0)
(1.0047 0.0471177 0)
(0.995548 0.0395481 0)
(0.989228 0.0319427 0)
(0.985043 0.0248647 0)
(0.982412 0.0185438 0)
(0.979851 0.0129728 0)
(0.952363 0.00793241 0)
(0.735158 0.00327527 0)
(0.167288 0.000265137 0)
(0.236635 0.000780959 0)
(1.03609 0.0122532 0)
(1.11051 0.0201868 0)
(1.11171 0.0281 0)
(1.106 0.0373079 0)
(1.09761 0.0475091 0)
(1.08626 0.0574332 0)
(1.07159 0.0658038 0)
(1.05356 0.0712136 0)
(1.03253 0.071982 0)
(1.01231 0.0671758 0)
(0.996667 0.0589813 0)
(0.985422 0.0496517 0)
(0.977528 0.0403218 0)
(0.972184 0.0316408 0)
(0.968739 0.0238915 0)
(0.965618 0.0170374 0)
(0.93716 0.0106456 0)
(0.719015 0.00443402 0)
(0.160799 0.000367246 0)
(0.254988 0.00130373 0)
(1.06701 0.0190314 0)
(1.13716 0.0292701 0)
(1.13597 0.0397354 0)
(1.12703 0.0520067 0)
(1.11476 0.0648479 0)
(1.09889 0.0764844 0)
(1.07934 0.0855919 0)
(1.05631 0.0907619 0)
(1.03034 0.0903257 0)
(1.00588 0.0836479 0)
(0.987018 0.0734451 0)
(0.973291 0.0621576 0)
(0.963405 0.0509282 0)
(0.956429 0.0404385 0)
(0.95166 0.0310309 0)
(0.947521 0.0226631 0)
(0.917978 0.0146168 0)
(0.698775 0.00619648 0)
(0.152537 0.000501119 0)
(0.282839 0.00257934 0)
(1.11136 0.0326486 0)
(1.17319 0.0457731 0)
(1.16702 0.0597613 0)
(1.15259 0.0752377 0)
(1.13439 0.0899581 0)
(1.11244 0.102269 0)
(1.08692 0.111013 0)
(1.05818 0.114889 0)
(1.02683 0.112358 0)
(0.997841 0.103217 0)
(0.975514 0.0907184 0)
(0.958995 0.0773772 0)
(0.946719 0.0642357 0)
(0.937593 0.0518931 0)
(0.930866 0.0407031 0)
(0.924953 0.0305488 0)
(0.893737 0.0205517 0)
(0.673325 0.00864278 0)
(0.142646 0.000618751 0)
(0.323835 0.010994 -9.38778e-21)
(1.17027 0.0610641 -6.45029e-21)
(1.2183 0.0777305 1.48944e-21)
(1.20257 0.0946358 0)
(1.17984 0.111059 -2.39315e-35)
(1.15383 0.125367 4.94283e-22)
(1.12468 0.136457 -1.75111e-21)
(1.09255 0.143335 0)
(1.05774 0.144832 5.54281e-35)
(1.02069 0.139502 -3.99759e-21)
(0.986852 0.127643 0)
(0.960637 0.112925 -5.57539e-21)
(0.940789 0.0977925 -1.69871e-20)
(0.925438 0.0831588 -8.20852e-21)
(0.913295 0.0695838 -2.57475e-21)
(0.903481 0.0574712 -1.56007e-21)
(0.894366 0.0467115 0)
(0.861069 0.0359278 1.13127e-21)
(0.639117 0.0212997 1.34015e-21)
(0.132507 0.00404461 2.40032e-20)
(0.343806 0.0300511 -2.14643e-20)
(1.21922 0.110558 5.09873e-22)
(1.2591 0.128881 -9.79685e-22)
(1.23489 0.143527 0)
(1.20416 0.157894 6.70689e-22)
(1.17074 0.170133 -3.69209e-22)
(1.1346 0.179076 -1.3184e-21)
(1.09585 0.183647 -7.57189e-21)
(1.05468 0.182713 0)
(1.01137 0.174899 1.67977e-20)
(0.971742 0.160933 1.82793e-20)
(0.940517 0.144881 5.8023e-21)
(0.916184 0.129088 2.27937e-20)
(0.896571 0.114254 3.35972e-20)
(0.880266 0.100883 0)
(0.866209 0.089418 5.00635e-20)
(0.852568 0.0799513 7.36149e-20)
(0.816269 0.0705809 8.25573e-20)
(0.61223 0.0507128 -9.6687e-20)
(0.131217 0.0112427 -1.77671e-21)
(0.330679 0.0484321 0)
(1.24849 0.174804 -6.44759e-21)
(1.28926 0.192548 0)
(1.25924 0.20303 8.98589e-21)
(1.22236 0.213041 0)
(1.18278 0.221167 2.64636e-21)
(1.14066 0.226351 1.92388e-21)
(1.09613 0.22753 -1.20638e-20)
(1.04934 0.223495 -1.46554e-21)
(1.00046 0.212893 8.1118e-21)
(0.955787 0.196908 4.18683e-20)
(0.920505 0.179842 -1.94797e-22)
(0.892844 0.163932 -1.69649e-20)
(0.870424 0.149765 -3.27185e-20)
(0.851793 0.137631 3.97943e-20)
(0.835921 0.12775 -7.14296e-20)
(0.821296 0.120068 -9.78911e-21)
(0.788561 0.111839 0)
(0.602115 0.0853684 6.19569e-22)
(0.13581 0.0197227 0)
(0.316566 0.0641664 -1.68205e-19)
(1.2615 0.242238 6.77699e-20)
(1.30685 0.260777 3.45865e-20)
(1.27361 0.266971 -6.15937e-21)
(1.23277 0.272062 9.24078e-21)
(1.18894 0.275509 -7.33834e-21)
(1.14241 0.27636 3.06979e-21)
(1.09342 0.273554 0)
(1.04218 0.265932 -3.2742e-20)
(0.988874 0.252214 0)
(0.94033 0.234022 -2.11042e-20)
(0.902107 0.21588 -2.94457e-20)
(0.872332 0.199765 -1.87492e-20)
(0.848521 0.185933 -2.4122e-20)
(0.829069 0.17442 0)
(0.812859 0.165306 0)
(0.798349 0.158479 -6.50136e-20)
(0.767576 0.150192 1.3006e-20)
(0.591319 0.115704 -7.68327e-21)
(0.135466 0.0269151 -8.99524e-21)
(0.305349 0.0782377 1.23277e-19)
(1.26345 0.309057 0)
(1.31392 0.328854 -9.62833e-20)
(1.27909 0.331007 -2.34577e-20)
(1.23598 0.331559 -1.66052e-20)
(1.18951 0.330477 0)
(1.13999 0.327008 -1.94479e-22)
(1.08769 0.320146 1.10194e-20)
(1.03295 0.308805 1.45421e-20)
(0.976032 0.291812 3.92597e-20)
(0.924398 0.271234 0)
(0.88404 0.251753 -6.33071e-20)
(0.852932 0.235034 -4.03507e-20)
(0.828365 0.221037 -2.42586e-20)
(0.808612 0.209605 1.58996e-19)
(0.792433 0.200571 1.94828e-20)
(0.778259 0.193791 9.33787e-20)
(0.74879 0.184796 -4.53541e-19)
(0.579341 0.143056 2.72261e-19)
(0.134022 0.0335143 -3.29066e-19)
(0.297311 0.0913711 1.28887e-19)
(1.25862 0.372562 -2.33848e-20)
(1.31344 0.39465 1.68629e-20)
(1.27788 0.393226 4.48541e-20)
(1.23343 0.389668 2.6384e-20)
(1.18524 0.384515 1.54785e-21)
(1.13364 0.37701 -2.19862e-22)
(1.07897 0.366232 8.91823e-21)
(1.02163 0.351198 -3.11197e-20)
(0.96204 0.33088 0)
(0.908113 0.307775 -2.72355e-20)
(0.866215 0.286711 -1.38925e-21)
(0.834223 0.269014 -4.48522e-20)
(0.809252 0.254448 0)
(0.78943 0.242624 -3.4529e-20)
(0.773402 0.233278 -8.38901e-20)
(0.759528 0.226149 2.32495e-19)
(0.731061 0.216248 -2.33296e-19)
(0.567345 0.167842 3.33758e-19)
(0.131953 0.0394565 -3.47978e-19)
(0.291379 0.103734 -5.20909e-22)
(1.24984 0.432067 2.82272e-20)
(1.30753 0.456895 8.07685e-20)
(1.27177 0.452614 -2.76095e-20)
(1.22663 0.445564 1.49689e-20)
(1.17739 0.436745 0)
(1.1244 0.425513 5.17329e-21)
(1.06805 0.411065 -7.56868e-21)
(1.00882 0.392489 -1.43259e-20)
(0.947184 0.368901 0)
(0.891479 0.343203 -2.60676e-20)
(0.848398 0.320337 -3.65091e-20)
(0.815767 0.301388 4.87252e-20)
(0.790565 0.285917 -3.12995e-20)
(0.770771 0.273408 -1.51333e-19)
(0.75495 0.263467 9.31557e-20)
(0.741411 0.255781 2.96293e-20)
(0.713808 0.244884 0)
(0.555138 0.190318 -3.23213e-19)
(0.129446 0.0447957 -1.18734e-20)
(0.286706 0.115506 2.06751e-20)
(1.23894 0.487429 -3.2136e-20)
(1.29797 0.515264 -4.35766e-20)
(1.26214 0.508645 -8.29785e-20)
(1.21665 0.498611 7.30293e-20)
(1.16677 0.486578 -3.66782e-20)
(1.11284 0.47199 -1.08619e-20)
(1.05532 0.45414 -1.09731e-20)
(0.994738 0.432249 1.27896e-20)
(0.931605 0.405514 -9.1791e-20)
(0.874509 0.377256 -3.17588e-20)
(0.830444 0.352471 0)
(0.797312 0.332057 5.30213e-20)
(0.771944 0.315422 6.56842e-20)
(0.752234 0.301969 8.11106e-20)
(0.736658 0.291258 -1.0162e-19)
(0.723456 0.282833 -3.06672e-20)
(0.696694 0.27082 3.65813e-20)
(0.542695 0.2106 0)
(0.12662 0.0495472 -2.59858e-20)
(0.28283 0.126782 -2.36197e-19)
(1.227 0.539222 1.47563e-19)
(1.28598 0.569897 4.67955e-20)
(1.25007 0.561276 -6.27268e-20)
(1.20441 0.548642 4.36911e-20)
(1.15411 0.533751 -3.2837e-21)
(1.09955 0.516119 1.02538e-20)
(1.04124 0.495158 -4.24075e-21)
(0.979749 0.470184 -2.44013e-20)
(0.91554 0.440527 -1.86602e-22)
(0.857327 0.409827 -9.27939e-20)
(0.812365 0.383106 9.19537e-20)
(0.778712 0.361073 -5.92791e-20)
(0.753164 0.343054 7.41642e-20)
(0.73354 0.328456 0)
(0.718213 0.31676 -5.53317e-20)
(0.7054 0.307463 -1.42745e-21)
(0.679478 0.294167 -1.6034e-19)
(0.529922 0.228863 -2.38272e-20)
(0.123401 0.0536719 0)
(0.279549 0.137458 0)
(1.21464 0.587764 1.56108e-19)
(1.27241 0.620928 1.08759e-19)
(1.23636 0.610546 7.03302e-20)
(1.19058 0.595686 4.13265e-20)
(1.14002 0.578254 0)
(1.08506 0.557848 1.19477e-20)
(1.0262 0.533976 -1.22274e-21)
(0.964108 0.506147 4.98859e-20)
(0.899209 0.473822 -1.08458e-20)
(0.840085 0.440886 -6.74755e-20)
(0.794217 0.41231 4.54928e-20)
(0.7599 0.388577 -2.07679e-21)
(0.734073 0.368982 7.79878e-20)
(0.714461 0.352999 5.15769e-20)
(0.699389 0.340115 -1.20869e-19)
(0.686977 0.329777 1.47023e-19)
(0.66193 0.315079 4.42709e-20)
(0.516671 0.245046 1.84289e-19)
(0.119691 0.057092 -4.93027e-19)
(0.276813 0.147788 -5.89516e-20)
(1.20197 0.633422 8.95103e-20)
(1.25782 0.668623 -6.72489e-20)
(1.22157 0.656673 -8.05207e-20)
(1.17569 0.639818 0)
(1.12491 0.620116 3.23446e-20)
(1.06969 0.597177 -3.35434e-20)
(1.01051 0.570553 3.98931e-21)
(0.948095 0.540011 0)
(0.882838 0.505277 -1.6206e-19)
(0.823008 0.47047 1.7983e-19)
(0.776102 0.440266 0)
(0.740877 0.414826 7.01833e-20)
(0.714526 0.393459 -2.30911e-21)
(0.694801 0.375829 -1.63941e-19)
(0.67991 0.361494 6.43895e-20)
(0.66793 0.349898 0)
(0.643791 0.333744 2.41196e-19)
(0.502687 0.259304 0)
(0.115479 0.059829 -2.37083e-19)
(0.274584 0.157797 6.47669e-20)
(1.18918 0.676524 1.01737e-19)
(1.24277 0.713179 -6.98195e-20)
(1.20614 0.699905 0)
(1.16013 0.68124 5.56137e-20)
(1.10914 0.659454 0)
(1.05371 0.634135 4.56478e-20)
(0.994394 0.604924 3.9811e-21)
(0.931937 0.571756 5.1007e-21)
(0.866648 0.534845 -7.83093e-20)
(0.806323 0.498648 1.69954e-20)
(0.758249 0.467191 0)
(0.721688 0.440104 -1.48817e-19)
(0.694391 0.416799 2.51177e-21)
(0.674304 0.397191 0)
(0.659479 0.381088 2.86824e-21)
(0.647921 0.367942 2.20407e-19)
(0.624773 0.35004 -2.14293e-19)
(0.487767 0.271516 6.35155e-20)
(0.110594 0.0616309 0)
(0.272602 0.167395 0)
(1.17633 0.717104 1.12229e-19)
(1.22748 0.754854 8.09702e-20)
(1.19043 0.740406 -2.05949e-21)
(1.14422 0.720142 3.49362e-20)
(1.09299 0.696418 7.37932e-20)
(1.03734 0.66883 -1.44604e-20)
(0.977959 0.637095 6.59926e-22)
(0.915778 0.601383 2.68944e-20)
(0.850864 0.562459 -1.14312e-19)
(0.790366 0.525423 -1.21659e-21)
(0.740865 0.49333 -5.86417e-20)
(0.702412 0.464822 2.4497e-19)
(0.673588 0.439403 -3.25075e-21)
(0.652683 0.417482 -1.32241e-19)
(0.637715 0.399192 -2.4296e-19)
(0.626535 0.384136 0)
(0.604377 0.364155 0)
(0.471588 0.281487 7.16238e-20)
(0.104807 0.0624584 -4.1614e-20)
(0.271236 0.176732 7.84725e-20)
(1.1638 0.755384 -2.40332e-19)
(1.21203 0.794071 -8.53245e-20)
(1.17463 0.778423 0)
(1.12816 0.756697 -9.09605e-22)
(1.07666 0.731166 8.78929e-20)
(1.02076 0.70139 -4.93672e-20)
(0.961353 0.667124 -1.90191e-20)
(0.899673 0.628894 2.5554e-20)
(0.835708 0.588078 -8.19095e-20)
(0.775418 0.550816 -1.3993e-19)
(0.724314 0.518912 1.54384e-19)
(0.683242 0.489442 0)
(0.652053 0.461799 -5.97562e-20)
(0.629669 0.43707 -1.47386e-19)
(0.614239 0.416032 -1.79237e-19)
(0.603322 0.398651 -2.19521e-19)
(0.582011 0.376051 6.64347e-20)
(0.453447 0.289074 -3.87891e-20)
(0.097701 0.0621241 9.33822e-22)
(0.270031 0.185739 0)
(1.15178 0.791513 0)
(1.19675 0.830904 1.19903e-21)
(1.15891 0.814168 0)
(1.11212 0.791105 -1.26482e-19)
(1.06028 0.763859 -7.65243e-20)
(1.00412 0.731954 0)
(0.944663 0.695137 -5.22738e-21)
(0.883633 0.65424 2.58328e-20)
(0.821258 0.611661 -1.78265e-19)
(0.761864 0.574769 0)
(0.709075 0.544172 -9.62847e-20)
(0.664498 0.514517 -4.27482e-21)
(0.62978 0.484835 -3.60347e-21)
(0.605114 0.456802 1.59658e-19)
(0.588719 0.431868 -2.28819e-22)
(0.577526 0.411409 -4.86421e-19)
(0.556987 0.385643 1.48089e-19)
(0.432853 0.293882 4.43937e-20)
(0.0890824 0.0601895 0)
(0.268986 0.194699 -2.82057e-19)
(1.13997 0.825691 -1.43386e-19)
(1.1818 0.865572 -2.06852e-19)
(1.14341 0.847837 2.8261e-19)
(1.09625 0.823527 -2.32294e-19)
(1.04397 0.794661 0)
(0.987461 0.760666 -4.14067e-20)
(0.927985 0.721248 1.01876e-20)
(0.867685 0.677497 2.51401e-21)
(0.807462 0.633062 1.32812e-20)
(0.750046 0.59717 1.58392e-19)
(0.695653 0.569341 -3.18636e-20)
(0.646569 0.540717 -1.50891e-19)
(0.60693 0.509286 -7.37478e-20)
(0.578345 0.477043 9.12177e-20)
(0.560097 0.447648 -8.37346e-24)
(0.548514 0.422418 1.37447e-19)
(0.529685 0.39288 -3.27456e-19)
(0.408719 0.294884 3.96081e-19)
(0.078618 0.0563032 5.67977e-20)
(0.268025 0.203445 1.0231e-19)
(1.12847 0.858108 -7.64753e-20)
(1.16723 0.898246 4.47227e-21)
(1.12825 0.879602 1.55963e-19)
(1.08064 0.854137 5.356e-20)
(1.02783 0.82373 1.48653e-19)
(0.970867 0.787686 -1.81837e-20)
(0.911291 0.745582 4.96276e-20)
(0.851881 0.698738 3.04699e-21)
(0.794318 0.652107 -7.82409e-20)
(0.740076 0.617878 0)
(0.684723 0.594514 -1.43172e-19)
(0.630117 0.568861 2.21118e-19)
(0.583171 0.536533 0)
(0.548797 0.498933 -1.97453e-19)
(0.526727 0.465149 1.26553e-19)
(0.515248 0.43357 -1.51965e-19)
(0.497454 0.398431 -1.86194e-19)
(0.378819 0.292151 -3.30669e-19)
(0.0656276 0.0499037 -2.58639e-19)
(0.267495 0.21213 -1.10868e-19)
(1.11734 0.888837 8.17176e-20)
(1.15313 0.929074 1.87087e-19)
(1.11353 0.909599 2.12606e-19)
(1.06539 0.883083 -1.09901e-19)
(1.01194 0.851221 9.93646e-20)
(0.95442 0.813169 -5.58919e-20)
(0.894593 0.7683 6.20944e-20)
(0.836103 0.718055 1.28398e-20)
(0.781799 0.66876 5.2105e-20)
(0.731908 0.636553 2.89532e-19)
(0.676842 0.619826 0)
(0.615671 0.599622 0)
(0.559076 0.566805 -8.67155e-20)
(0.515595 0.524925 0)
(0.488654 0.481973 2.81106e-19)
(0.47651 0.443487 3.41737e-19)
(0.458874 0.400613 0)
(0.341974 0.283871 0)
(0.0498489 0.0405565 2.91913e-19)
(0.266949 0.22041 1.20721e-19)
(1.10668 0.918013 9.57503e-20)
(1.13955 0.958196 1.32925e-19)
(1.0993 0.937975 -1.84866e-19)
(1.05056 0.910499 -1.20166e-19)
(0.996385 0.877273 -1.29271e-19)
(0.93816 0.837282 8.1564e-20)
(0.877921 0.789576 1.29244e-21)
(0.820233 0.735526 -2.40911e-21)
(0.769766 0.682939 -1.25701e-20)
(0.726049 0.652558 1.33901e-19)
(0.67305 0.645331 0)
(0.604965 0.632637 2.25704e-19)
(0.535101 0.599511 1.84054e-19)
(0.479536 0.557031 4.96505e-19)
(0.445927 0.505723 1.54736e-19)
(0.429217 0.453446 -1.96845e-19)
(0.411783 0.395101 -1.17236e-19)
(0.297425 0.266375 0)
(0.0328855 0.0279543 3.28523e-19)
(0.266958 0.228938 -2.61688e-19)
(1.09648 0.945699 0)
(1.12652 0.985724 1.45147e-19)
(1.08562 0.964828 -1.48253e-19)
(1.03622 0.936496 1.32064e-19)
(0.981222 0.902011 1.85214e-19)
(0.92216 0.860182 -1.84271e-19)
(0.861255 0.809563 2.27671e-21)
(0.804203 0.751289 0)
(0.75788 0.694573 -3.98715e-21)
(0.722567 0.665595 -2.14956e-19)
(0.673637 0.670195 1.59399e-20)
(0.598387 0.668378 3.08008e-19)
(0.511891 0.642532 0)
(0.443596 0.593313 3.42897e-19)
(0.396551 0.533399 0)
(0.368906 0.469292 0)
(0.350574 0.38286 -1.36298e-19)
(0.248311 0.230088 0)
(0.0359204 0.02042 9.068e-20)
(0.266881 0.236961 -2.821e-19)
(1.08666 0.972109 0)
(1.114 1.01182 2.33596e-19)
(1.07248 0.990365 0)
(1.02237 0.961319 -6.98135e-20)
(0.966422 0.925728 0)
(0.906372 0.882256 -1.33959e-20)
(0.844487 0.828686 -1.1498e-20)
(0.787753 0.765811 -4.94527e-21)
(0.745742 0.703775 2.92064e-20)
(0.721512 0.67512 2.94596e-21)
(0.679648 0.694375 1.36607e-19)
(0.596089 0.708678 2.98972e-19)
(0.493142 0.688355 4.74842e-20)
(0.409626 0.646017 2.7555e-19)
(0.341307 0.579486 0)
(0.286111 0.487377 4.4603e-19)
(0.253928 0.355441 -2.71894e-19)
(0.134163 0.174391 3.17994e-19)
(-0.0521375 0.403289 -3.80997e-19)
(0.267096 0.244985 2.27915e-19)
(1.07702 0.997383 3.49376e-19)
(1.10185 1.03676 0)
(1.05975 1.01498 1.31187e-21)
(1.00879 0.985498 1.8751e-19)
(0.951678 0.949059 -3.43604e-19)
(0.890354 0.904247 -7.79577e-20)
(0.826959 0.847702 0)
(0.769856 0.779728 -4.87989e-20)
(0.732394 0.710426 4.02889e-21)
(0.723399 0.680108 0)
(0.69376 0.718854 0)
(0.601342 0.7559 2.61426e-19)
(0.484132 0.751031 -1.57055e-19)
(0.371994 0.704304 -2.81762e-19)
(0.280616 0.635414 0)
(0.181353 0.534532 2.30193e-19)
(0.072688 0.606334 -2.76311e-19)
(0.0675153 1.79513 -1.51393e-19)
(0.097946 2.76064 -1.89037e-19)
(0.26745 0.252096 -1.64231e-19)
(1.06745 1.02152 -4.34192e-19)
(1.09006 1.06041 1.30155e-19)
(1.04753 1.03857 1.20606e-19)
(0.995602 1.00886 0)
(0.937142 0.971827 -2.41314e-19)
(0.874395 0.926038 -1.2682e-19)
(0.808909 0.866599 7.34394e-21)
(0.750618 0.792958 -8.89384e-21)
(0.717643 0.71395 -8.8635e-20)
(0.727211 0.68017 -7.60253e-21)
(0.71631 0.742116 9.10545e-20)
(0.620983 0.810922 2.55787e-19)
(0.470744 0.820391 -3.73304e-19)
(0.329402 0.779941 -4.31579e-19)
(0.216156 0.725766 0)
(0.115221 0.958473 0)
(0.168559 2.45368 1.20153e-19)
(0.170716 3.13174 0)
(0.16758 3.32582 2.82129e-19)
(0.271097 0.258009 0)
(1.05765 1.04428 0)
(1.07847 1.08247 0)
(1.03558 1.06094 3.33255e-20)
(0.982605 1.03126 1.61062e-19)
(0.922715 0.994006 -1.77052e-19)
(0.858507 0.947711 -8.76845e-20)
(0.790329 0.885529 8.04221e-21)
(0.729846 0.805671 -9.5102e-20)
(0.701204 0.714289 -2.15108e-20)
(0.732551 0.672135 -1.7475e-19)
(0.747911 0.755416 -1.26387e-20)
(0.645568 0.876912 2.49809e-20)
(0.455706 0.919544 5.71861e-20)
(0.270146 0.880899 -2.59636e-21)
(0.18224 1.06193 2.00118e-21)
(0.226906 2.52862 -5.84584e-19)
(0.25222 3.22464 -2.21197e-19)
(0.228484 3.37481 1.0438e-19)
(0.205917 3.40383 -1.07388e-19)
(0.166997 0.200713 9.18729e-20)
(1.04469 1.06578 0)
(1.06785 1.10328 -2.4514e-19)
(1.02444 1.08269 -3.03487e-19)
(0.970469 1.05336 3.28698e-19)
(0.909121 1.01614 1.85905e-19)
(0.84402 0.969424 1.00561e-19)
(0.772718 0.907287 -1.19077e-19)
(0.70738 0.823187 8.95527e-20)
(0.681025 0.716931 0)
(0.736345 0.65401 -1.89508e-19)
(0.798923 0.740853 -1.13118e-20)
(0.722299 0.934885 0)
(0.467096 1.04667 5.10925e-20)
(0.250973 1.04926 1.29896e-19)
(0.213666 2.12445 -1.49577e-19)
(0.338931 3.23414 1.63742e-19)
(0.316152 3.38676 7.80991e-20)
(0.265935 3.42572 8.72875e-20)
(0.231842 3.44508 1.05769e-19)
(0.329537 0.313808 -1.58832e-19)
(1.02368 1.07656 0)
(1.05374 1.13415 2.47273e-19)
(1.00677 1.11468 3.03764e-19)
(0.95043 1.08588 -3.28498e-19)
(0.885776 1.04836 -1.87145e-19)
(0.814784 0.999147 -1.4431e-19)
(0.738552 0.931343 -9.35093e-21)
(0.669486 0.835554 -1.19687e-19)
(0.645993 0.704615 -2.48926e-19)
(0.752613 0.603521 -1.93435e-20)
(0.939067 0.718002 -1.2547e-19)
(0.88682 1.07322 1.07553e-20)
(0.53455 1.30518 -4.74385e-20)
(0.370751 1.93674 -1.23473e-19)
(0.472024 3.17888 8.17437e-20)
(0.457048 3.41915 -6.79128e-20)
(0.399892 3.47136 -3.65535e-20)
(0.338685 3.51707 1.25594e-20)
(0.253056 3.50858 -1.3127e-22)
(0.319311 0.312178 0)
(1.02228 1.10023 6.76736e-20)
(1.04425 1.15684 -4.91813e-20)
(0.995939 1.13785 -3.39445e-20)
(0.937931 1.10946 -2.10261e-19)
(0.871244 1.07203 1.80561e-19)
(0.796961 1.02207 9.25764e-20)
(0.716011 0.952051 -9.34098e-21)
(0.639917 0.848648 1.41153e-19)
(0.609543 0.689166 -2.28225e-20)
(0.744733 0.525024 9.32897e-19)
(1.08615 0.646706 -2.00318e-20)
(1.07228 1.19755 3.02715e-21)
(0.652781 1.58036 -4.60191e-20)
(0.548724 2.61873 2.73285e-20)
(0.617683 3.38098 2.03243e-21)
(0.522977 3.51085 -5.50485e-20)
(0.467966 3.5632 -8.05862e-20)
(0.374649 3.616 1.16107e-19)
(0.279418 3.59348 4.7156e-20)
(0.300719 0.309241 1.69915e-19)
(1.01877 1.12787 4.4895e-19)
(1.03471 1.18211 -1.3622e-19)
(0.98463 1.16315 -1.25581e-19)
(0.924814 1.13504 0)
(0.855941 1.0977 2.53786e-19)
(0.778125 1.04721 1.36141e-19)
(0.691635 0.975133 -9.20146e-21)
(0.606085 0.863382 1.7631e-20)
(0.564596 0.672204 3.82461e-19)
(0.739041 0.403118 6.91404e-19)
(1.19743 0.628221 4.23005e-19)
(1.24714 1.40167 1.54402e-19)
(0.825434 1.95782 1.59407e-19)
(0.734967 3.10146 9.61855e-20)
(0.73523 3.51594 0)
(0.60597 3.59575 0)
(0.524558 3.67978 1.16814e-19)
(0.426201 3.74602 0)
(0.294431 3.71553 1.8533e-19)
(0.287857 0.310642 -2.47079e-19)
(1.01305 1.1577 -3.71127e-19)
(1.0241 1.20955 0)
(0.972204 1.19024 1.24871e-21)
(0.910578 1.16228 -1.98923e-19)
(0.839419 1.12511 3.67419e-19)
(0.758014 1.07456 8.62454e-20)
(0.665371 1.00135 -9.42123e-21)
(0.567748 0.882892 1.26081e-19)
(0.504406 0.660479 -2.00232e-20)
(0.662443 0.318141 0)
(1.23569 0.684072 0)
(1.41147 1.69669 4.45559e-19)
(0.990435 2.38335 -4.7161e-20)
(0.907832 3.41312 -7.40706e-20)
(0.818176 3.63029 0)