/*--------------------------------*- C++ -*----------------------------------*\
  =========                 |
  \\      /  F ield         | OpenFOAM: The Open Source CFD Toolbox
   \\    /   O peration     | Website:  https://openfoam.org
    \\  /    A nd           | Version:  9
     \\/     M anipulation  |
\*---------------------------------------------------------------------------*/
FoamFile
{
    format      ascii;
    class       volScalarField;
    location    "23";
    object      p;
}
// * * * * * * * * * * * * * * * * * * * * * * * * * * * * * * * * * * * * * //

dimensions      [0 2 -2 0 0 0 0];

internalField   nonuniform List<scalar> 
8800
(
0.423933
0.376147
0.337457
0.30846
0.28759
0.272748
0.262132
0.254618
0.249741
0.247587
0.24871
0.252756
0.259277
0.268492
0.281198
0.298881
0.323623
0.357537
0.400062
0.458761
0.255184
0.262862
0.270339
0.273648
0.272144
0.267063
0.260568
0.254469
0.249702
0.246777
0.246367
0.248716
0.253061
0.258889
0.265566
0.271775
0.275365
0.2746
0.269139
0.260427
0.233598
0.239762
0.243893
0.246842
0.248894
0.249495
0.248376
0.246242
0.244159
0.243132
0.243936
0.246159
0.248812
0.25087
0.25138
0.250104
0.247701
0.244261
0.239682
0.235915
0.227805
0.23046
0.233227
0.235645
0.237291
0.238455
0.239185
0.239267
0.238901
0.238724
0.239297
0.240281
0.240953
0.240872
0.240141
0.238951
0.237053
0.234414
0.231971
0.230466
0.222459
0.223889
0.225698
0.227768
0.229584
0.230943
0.231927
0.232687
0.233225
0.233645
0.234087
0.234361
0.234258
0.233793
0.232937
0.231547
0.229728
0.227779
0.226419
0.22559
0.217441
0.218365
0.21965
0.221272
0.222959
0.22453
0.225836
0.226879
0.22776
0.228492
0.228931
0.228986
0.228688
0.228009
0.226907
0.225511
0.224017
0.222622
0.221736
0.221193
0.212631
0.213297
0.214329
0.215737
0.217248
0.218791
0.220291
0.221628
0.222749
0.223658
0.224187
0.224223
0.223792
0.222946
0.221834
0.220611
0.219351
0.218234
0.217573
0.217185
0.208043
0.20855
0.209416
0.210681
0.212089
0.213568
0.215087
0.216578
0.217927
0.219035
0.219687
0.219742
0.219287
0.218491
0.217509
0.216437
0.215348
0.214426
0.213908
0.213618
0.203623
0.204005
0.204762
0.20595
0.207321
0.208757
0.210251
0.211796
0.213321
0.214669
0.215472
0.215609
0.215271
0.214641
0.213825
0.212879
0.211904
0.21111
0.210701
0.210486
0.199413
0.199701
0.200365
0.201497
0.202843
0.204291
0.205824
0.207397
0.208981
0.210491
0.211551
0.211973
0.211892
0.211436
0.21074
0.209917
0.209049
0.208371
0.208054
0.207896
0.195392
0.195591
0.1962
0.197325
0.198682
0.20014
0.201731
0.203461
0.205274
0.20705
0.208406
0.209066
0.20916
0.208872
0.208344
0.207647
0.206859
0.206261
0.206017
0.205915
0.191707
0.191829
0.192339
0.193344
0.194584
0.19596
0.1975
0.199233
0.201173
0.20325
0.20499
0.206056
0.206551
0.206642
0.206423
0.205991
0.205437
0.205006
0.204854
0.204796
0.188253
0.188322
0.188719
0.189586
0.190737
0.192102
0.19372
0.195636
0.197847
0.200306
0.202527
0.204033
0.204868
0.205229
0.205322
0.205171
0.204885
0.204667
0.204604
0.204567
0.184643
0.184694
0.184994
0.185699
0.186722
0.188014
0.189647
0.191686
0.194204
0.197167
0.199982
0.202044
0.203437
0.204269
0.204732
0.204945
0.204996
0.205012
0.205016
0.204979
0.180396
0.180447
0.180713
0.181338
0.182318
0.183653
0.185428
0.187746
0.190697
0.194293
0.197847
0.20059
0.202484
0.203784
0.204655
0.205215
0.205566
0.205753
0.205795
0.205752
0.175226
0.175283
0.175589
0.176243
0.177279
0.178763
0.180816
0.183568
0.187153
0.191583
0.196026
0.199526
0.202062
0.203834
0.205067
0.205941
0.206525
0.206814
0.206876
0.206827
0.16895
0.169007
0.169368
0.170148
0.171368
0.173142
0.175617
0.178974
0.183362
0.188843
0.194404
0.198831
0.202023
0.204348
0.206017
0.207198
0.207956
0.208316
0.208405
0.208356
0.161482
0.161525
0.161968
0.162957
0.1645
0.166729
0.16981
0.17398
0.179432
0.186235
0.193162
0.198699
0.202748
0.205667
0.207738
0.209229
0.210128
0.210559
0.210687
0.210636
0.152731
0.152769
0.153296
0.15456
0.156491
0.159321
0.163198
0.168398
0.175182
0.183637
0.192234
0.199121
0.20419
0.207835
0.210447
0.212207
0.213303
0.213849
0.214023
0.213969
0.142423
0.142454
0.143096
0.144619
0.147168
0.15068
0.155573
0.162112
0.170592
0.181098
0.191738
0.200262
0.206534
0.211059
0.214274
0.216434
0.217784
0.218481
0.218701
0.218636
0.130037
0.130077
0.130875
0.132754
0.135934
0.140479
0.146655
0.154916
0.165558
0.178623
0.191743
0.202206
0.209902
0.215466
0.219403
0.222087
0.223779
0.224659
0.224922
0.22484
0.114728
0.114786
0.115819
0.118275
0.122316
0.12812
0.136065
0.146614
0.160037
0.176274
0.192375
0.205127
0.214501
0.221266
0.226065
0.229369
0.231477
0.232557
0.232873
0.232769
0.0953303
0.0954257
0.096854
0.100143
0.105502
0.113125
0.123513
0.137102
0.154062
0.174169
0.193788
0.209186
0.220475
0.22864
0.234459
0.238502
0.241106
0.242435
0.242802
0.24267
0.070007
0.0701717
0.0722648
0.076973
0.0844577
0.0948536
0.108709
0.126349
0.147756
0.172492
0.19616
0.214548
0.228002
0.237767
0.244783
0.24971
0.252895
0.2545
0.254924
0.254755
0.0357363
0.0360801
0.0395316
0.046908
0.0579855
0.072712
0.0915287
0.114507
0.141382
0.171495
0.199682
0.221345
0.237179
0.248745
0.257157
0.26315
0.26705
0.268981
0.269452
0.269235
-0.0132926
-0.0119611
-0.00498205
0.00788571
0.0252229
0.0466453
0.0723237
0.102055
0.135372
0.171482
0.20452
0.229644
0.248008
0.261542
0.271547
0.27882
0.283634
0.285989
0.286507
0.286219
-0.0863487
-0.0781314
-0.0619994
-0.0391722
-0.0123909
0.0179974
0.0520737
0.0896052
0.130104
0.172797
0.211158
0.240165
0.261482
0.277421
0.289518
0.298636
0.304872
0.308071
0.308865
0.3087
-0.164619
-0.145914
-0.119985
-0.0867944
-0.0502872
-0.0107926
0.0317938
0.0773498
0.125494
0.175564
0.220347
0.254371
0.279668
0.298918
0.313879
0.32554
0.333842
0.338505
0.340044
0.340066
-0.228174
-0.206763
-0.172812
-0.131195
-0.0861297
-0.0381543
0.0125869
0.0659047
0.121427
0.178532
0.229278
0.267792
0.296537
0.318562
0.335768
0.349138
0.3591
0.364705
0.365908
0.366088
-0.27988
-0.256492
-0.21757
-0.169937
-0.118189
-0.0632019
-0.00535432
0.0549978
0.11733
0.18094
0.23708
0.279466
0.310971
0.335015
0.353743
0.36834
0.379127
0.385157
0.386617
0.386909
-0.322537
-0.298189
-0.255744
-0.203474
-0.146386
-0.0856773
-0.0218117
0.0446838
0.113124
0.182603
0.243523
0.289165
0.322834
0.348353
0.368107
0.383471
0.394613
0.401021
0.402873
0.403179
-0.358937
-0.334037
-0.288964
-0.233004
-0.171552
-0.106018
-0.0369749
0.034913
0.108803
0.183582
0.248773
0.297212
0.332604
0.359165
0.379517
0.395186
0.406453
0.412983
0.415004
0.415266
-0.391024
-0.365791
-0.318713
-0.259673
-0.194535
-0.124836
-0.0512549
0.0254488
0.104286
0.183945
0.253079
0.304047
0.340928
0.368296
0.389
0.404751
0.416025
0.422576
0.424724
0.424969
-0.420239
-0.394705
-0.34598
-0.284332
-0.216038
-0.142693
-0.0650601
0.0160088
0.09942
0.183668
0.256591
0.310018
0.348296
0.37638
0.3974
0.413208
0.424512
0.430999
0.433239
0.433459
-0.447439
-0.421634
-0.371487
-0.30759
-0.236519
-0.159955
-0.0787013
0.0063524
0.0940328
0.182691
0.25933
0.315208
0.354947
0.383835
0.405238
0.421187
0.432444
0.438829
0.441119
0.441411
-0.473325
-0.447185
-0.395709
-0.329895
-0.256344
-0.17692
-0.0924017
-0.00369472
0.0879848
0.180887
0.26127
0.319767
0.361154
0.390993
0.412882
0.429035
0.440334
0.446621
0.448846
0.449132
-0.498185
-0.471694
-0.419102
-0.351507
-0.275751
-0.193764
-0.1063
-0.0142514
0.0811751
0.178223
0.262484
0.323817
0.367041
0.398013
0.420552
0.437032
0.448432
0.454664
0.45675
0.456965
-0.522354
-0.49545
-0.441856
-0.372608
-0.294886
-0.210608
-0.120485
-0.0253745
0.0735743
0.174678
0.26289
0.327285
0.372629
0.404969
0.428337
0.445269
0.456827
0.463016
0.464934
0.465057
-0.54589
-0.51848
-0.464062
-0.393308
-0.313833
-0.227506
-0.134985
-0.0370793
0.0651489
0.170143
0.262371
0.3301
0.377896
0.411871
0.436256
0.453758
0.465515
0.471646
0.473426
0.473415
-0.568874
-0.541026
-0.485722
-0.413652
-0.332612
-0.244452
-0.149797
-0.049378
0.0558528
0.164548
0.260838
0.332162
0.382742
0.418671
0.444289
0.462478
0.474455
0.480472
0.482082
0.481953
-0.59139
-0.563036
-0.506876
-0.433629
-0.351206
-0.261428
-0.164891
-0.062242
0.0457059
0.157881
0.258182
0.33331
0.387049
0.425304
0.452413
0.471391
0.483572
0.489387
0.49077
0.490544
-0.613447
-0.584522
-0.527552
-0.453225
-0.36957
-0.278386
-0.180201
-0.0756015
0.0347676
0.150121
0.254303
0.333366
0.390622
0.431667
0.460619
0.480491
0.492773
0.498266
0.499368
0.499057
-0.634877
-0.605424
-0.547683
-0.472396
-0.387656
-0.295242
-0.195648
-0.0893614
0.0231066
0.141296
0.249122
0.332152
0.39322
0.437592
0.468927
0.489889
0.50205
0.506935
0.507667
0.507282
-0.655632
-0.625682
-0.567234
-0.491081
-0.405395
-0.311931
-0.211134
-0.103437
0.0108105
0.131456
0.2426
0.32949
0.394561
0.442802
0.477318
0.499896
0.511662
0.515317
0.515436
0.515015
-0.675787
-0.645262
-0.58617
-0.50924
-0.422723
-0.328368
-0.22657
-0.117719
-0.00200957
0.120691
0.234724
0.325248
0.394319
0.446839
0.485564
0.510976
0.522561
0.523906
0.522537
0.522166
-0.695163
-0.664145
-0.604434
-0.526806
-0.43958
-0.344469
-0.241858
-0.132088
-0.0152227
0.109123
0.225538
0.319323
0.3922
0.449044
0.492952
0.523217
0.536587
0.535432
0.530478
0.529031
-0.713849
-0.682323
-0.622049
-0.543805
-0.455997
-0.360283
-0.257056
-0.146605
-0.0288996
0.0966821
0.214924
0.311473
0.387895
0.448589
0.498045
0.535438
0.554685
0.555911
0.545706
0.526454
-0.731783
-0.699798
-0.639136
-0.560424
-0.472262
-0.376136
-0.272574
-0.161753
-0.0435876
0.0827061
0.202184
0.30082
0.380645
0.444261
0.497779
0.542857
0.568468
0.565181
0.550304
0.52837
-0.748806
-0.716728
-0.655521
-0.576414
-0.488087
-0.391687
-0.288187
-0.177201
-0.058956
0.0675118
0.187522
0.287142
0.370012
0.435436
0.487052
0.533322
0.559221
0.547047
0.475764
0.438509
-0.764292
-0.734203
-0.670853
-0.5912
-0.50277
-0.406465
-0.303608
-0.192728
-0.0747842
0.0512524
0.170966
0.270342
0.355179
0.422478
0.464335
0.496063
0.506978
0.460228
0.386168
0.339075
-0.818991
-0.74924
-0.684833
-0.606103
-0.517717
-0.421835
-0.318897
-0.20859
-0.0914001
0.0335452
0.152054
0.250118
0.333434
0.407202
0.412016
0.426025
0.39589
0.331714
0.251516
0.206114
-0.779903
-0.76439
-0.705002
-0.627289
-0.539308
-0.443842
-0.342011
-0.23273
-0.117096
0.00550201
0.120609
0.21509
0.289573
0.360511
0.361783
0.25233
0.143324
0.0688694
-0.00813169
0.0307199
-0.809762
-0.781257
-0.721361
-0.643789
-0.55614
-0.461056
-0.359155
-0.250721
-0.136464
-0.0161446
0.095467
0.18542
0.252014
0.289225
0.241745
0.0908646
-0.0472994
-0.14534
-0.251111
-0.190364
-0.832646
-0.801048
-0.740247
-0.662317
-0.574752
-0.479857
-0.378212
-0.270812
-0.158234
-0.040707
0.0667291
0.150865
0.207581
0.215297
0.104424
-0.0856664
-0.254845
-0.38826
-0.536972
-0.484799
-0.854782
-0.821684
-0.759869
-0.681184
-0.593504
-0.49879
-0.397777
-0.29152
-0.180785
-0.0663568
0.0362101
0.113904
0.157317
0.128125
-0.0409533
-0.262326
-0.476981
-0.674937
-0.895287
-0.888035
-0.876002
-0.842716
-0.780137
-0.7008
-0.61298
-0.518503
-0.418218
-0.313196
-0.204518
-0.0934903
0.00370889
0.0742862
0.0998881
0.0361922
-0.180162
-0.422073
-0.673041
-0.901945
-1.18858
-1.53875
-0.897357
-0.864261
-0.801284
-0.721537
-0.633569
-0.539283
-0.439648
-0.335869
-0.229315
-0.121849
-0.0301961
0.0325005
0.0411257
-0.0743861
-0.302386
-0.545073
-0.789103
-0.997664
-1.07904
-1.20188
-0.91959
-0.886714
-0.823593
-0.743694
-0.655694
-0.561682
-0.462777
-0.360391
-0.256244
-0.152785
-0.067093
-0.0135219
-0.0288866
-0.190812
-0.410551
-0.633407
-0.828879
-0.944105
-0.968361
-0.991616
-0.943039
-0.910359
-0.847193
-0.767307
-0.679432
-0.585837
-0.487869
-0.387144
-0.285787
-0.186914
-0.107618
-0.0652231
-0.105723
-0.297658
-0.508933
-0.705759
-0.85645
-0.912142
-0.927581
-0.930832
-0.967901
-0.935264
-0.872123
-0.792314
-0.704678
-0.611687
-0.514862
-0.416085
-0.317907
-0.224184
-0.151786
-0.122641
-0.184647
-0.399141
-0.601116
-0.776889
-0.890647
-0.901562
-0.905875
-0.906293
-0.994109
-0.961371
-0.898364
-0.818649
-0.731378
-0.63914
-0.543662
-0.447118
-0.352481
-0.264437
-0.199647
-0.182091
-0.275771
-0.496019
-0.686747
-0.839609
-0.880705
-0.89414
-0.897008
-0.896776
-1.02137
-0.988495
-0.925739
-0.846169
-0.759368
-0.668044
-0.574117
-0.480071
-0.389336
-0.307372
-0.250662
-0.245106
-0.379238
-0.589838
-0.76499
-0.881424
-0.897246
-0.894131
-0.894463
-0.894153
-1.04909
-1.01639
-0.953812
-0.874598
-0.78838
-0.698127
-0.605936
-0.514623
-0.428124
-0.352555
-0.303961
-0.316602
-0.478595
-0.682433
-0.843521
-0.879519
-0.900166
-0.898808
-0.895777
-0.895113
-1.0769
-1.04448
-0.982186
-0.903495
-0.818
-0.728948
-0.638684
-0.550278
-0.468266
-0.399311
-0.358602
-0.389407
-0.573658
-0.776244
-0.91985
-0.94608
-0.925409
-0.907593
-0.897033
-0.893977
-1.10386
-1.07205
-1.01032
-0.932236
-0.847605
-0.759911
-0.671719
-0.586336
-0.508856
-0.446693
-0.414082
-0.459342
-0.658997
-0.874066
-1.01591
-1.00649
-0.968214
-0.942172
-0.929798
-0.923396
-1.12887
-1.0977
-1.03741
-0.960003
-0.876404
-0.790208
-0.704158
-0.621857
-0.548726
-0.493464
-0.469329
-0.526648
-0.725951
-0.93977
-1.14829
-1.10995
-1.07731
-1.06029
-1.04953
-1.03864
-1.15063
-1.12073
-1.06188
-0.985794
-0.903453
-0.818816
-0.734885
-0.655604
-0.586494
-0.537762
-0.521043
-0.590256
-0.780576
-0.90317
-1.17418
-1.20508
-1.23802
-1.26581
-1.25626
-1.25114
-1.16765
-1.13957
-1.08279
-1.0083
-0.927514
-0.844558
-0.762622
-0.685936
-0.620568
-0.576629
-0.56807
-0.652023
-0.853068
-0.797952
-0.457165
-0.818605
-1.27717
-1.39749
-1.38518
-1.38471
-1.17844
-1.15283
-1.09877
-1.02629
-0.947233
-0.866039
-0.785903
-0.711021
-0.648511
-0.608129
-0.61326
-0.725217
-1.03497
-1.11177
-1.00727
-1.29248
-1.51153
-1.51013
-1.44737
-1.47777
-1.18126
-1.15908
-1.10848
-1.0385
-0.961357
-0.881858
-0.803086
-0.729145
-0.667194
-0.630089
-0.64397
-0.821182
-1.38944
-2.31986
-3.21482
-3.67495
-3.46456
-2.89967
-2.40687
-2.25273
-1.17535
-1.15694
-1.11071
-1.04396
-0.968889
-0.890877
-0.812752
-0.738508
-0.67427
-0.633934
-0.64611
-0.844547
-1.5462
-2.59155
-3.51155
-3.81893
-3.72955
-3.37736
-2.96604
-2.72775
-1.15945
-1.14469
-1.10463
-1.04213
-0.969343
-0.892481
-0.814158
-0.737538
-0.668339
-0.614225
-0.607117
-0.683133
-1.03195
-1.34795
-1.60668
-1.60768
-1.40754
-1.15277
-0.927791
-0.800362
-1.13465
-1.12405
-1.09052
-1.0334
-0.963017
-0.886984
-0.807449
-0.727071
-0.647897
-0.576156
-0.515349
-0.44087
-0.315116
0.0187283
0.461395
0.907394
1.25261
1.46768
1.5796
1.61875
-1.10352
-1.09689
-1.07067
-1.01944
-0.951435
-0.875714
-0.794723
-0.709462
-0.620038
-0.526873
-0.425647
-0.327072
0.00865722
0.615454
1.27624
1.85839
2.27717
2.51301
2.61054
2.63786
-1.06985
-1.06611
-1.04854
-1.00293
-0.936927
-0.861183
-0.778716
-0.690181
-0.595436
-0.487514
-0.379937
-0.264325
-0.0521234
0.520918
1.12527
1.64656
2.01771
2.23145
2.33137
2.36464
-1.03895
-1.03696
-1.02658
-0.987194
-0.922102
-0.845288
-0.762329
-0.673887
-0.577704
-0.469616
-0.361442
-0.254795
-0.129192
0.233404
0.683599
1.04957
1.32617
1.49429
1.57616
1.60305
-1.00749
-1.00833
-1.00301
-0.967978
-0.902944
-0.825541
-0.745139
-0.660646
-0.56956
-0.467292
-0.363075
-0.266539
-0.172262
0.039645
0.341566
0.60439
0.803177
0.929056
0.994839
1.01542
-0.954507
-0.95698
-0.9536
-0.923474
-0.864462
-0.794506
-0.722123
-0.646723
-0.564803
-0.471786
-0.375218
-0.288669
-0.20086
-0.0855819
0.107037
0.283985
0.418988
0.503046
0.542923
0.551598
-0.860092
-0.861573
-0.858356
-0.838244
-0.796886
-0.745506
-0.689326
-0.628043
-0.558666
-0.477936
-0.395939
-0.326484
-0.259029
-0.189783
-0.0664088
0.0497554
0.137188
0.18946
0.21427
0.217348
-0.755011
-0.755028
-0.752562
-0.742462
-0.721209
-0.690715
-0.653249
-0.607824
-0.551847
-0.483134
-0.414773
-0.366752
-0.334752
-0.303461
-0.222771
-0.130895
-0.0676661
-0.0296632
-0.0145241
-0.0134668
-0.679238
-0.678433
-0.677011
-0.673261
-0.66399
-0.647913
-0.624773
-0.59245
-0.547337
-0.487334
-0.427131
-0.393738
-0.39823
-0.384153
-0.315791
-0.249725
-0.202817
-0.177425
-0.166973
-0.167423
-0.64258
-0.641631
-0.640396
-0.638796
-0.634153
-0.624818
-0.609727
-0.586149
-0.549114
-0.49202
-0.430929
-0.39376
-0.395196
-0.384082
-0.335117
-0.293197
-0.268176
-0.256896
-0.253858
-0.254522
-0.637879
-0.636886
-0.635588
-0.634119
-0.630898
-0.624558
-0.614058
-0.596628
-0.565305
-0.508999
-0.436695
-0.376733
-0.347161
-0.334824
-0.31512
-0.296897
-0.285257
-0.27805
-0.274283
-0.275182
-0.657441
-0.656504
-0.655456
-0.654459
-0.652525
-0.649048
-0.643638
-0.634037
-0.611871
-0.561324
-0.47878
-0.384167
-0.321615
-0.305074
-0.304096
-0.295972
-0.282886
-0.272468
-0.268473
-0.269781
-0.694897
-0.694293
-0.694001
-0.694352
-0.695332
-0.697655
-0.702428
-0.7096
-0.713147
-0.693065
-0.612741
-0.482039
-0.387676
-0.356625
-0.342639
-0.313407
-0.284902
-0.259386
-0.249148
-0.252293
-0.741268
-0.741382
-0.74261
-0.745674
-0.752214
-0.765242
-0.789332
-0.831446
-0.896954
-0.959596
-0.897217
-0.71147
-0.572499
-0.51809
-0.459004
-0.383143
-0.306503
-0.259938
-0.249989
-0.254241
-0.783799
-0.785001
-0.788338
-0.795437
-0.810144
-0.838734
-0.892337
-0.992672
-1.16955
-1.38224
-1.35516
-1.07016
-0.846458
-0.741978
-0.624007
-0.494796
-0.385705
-0.325983
-0.320651
-0.324272
-0.805623
-0.808142
-0.813705
-0.825081
-0.848698
-0.894163
-0.981033
-1.15183
-1.46728
-1.88248
-1.90895
-1.49862
-1.16053
-0.983804
-0.820793
-0.658675
-0.535879
-0.480406
-0.479345
-0.485788
-0.790401
-0.79362
-0.80059
-0.815193
-0.84539
-0.903783
-1.01056
-1.2319
-1.64502
-2.18758
-2.32155
-1.84426
-1.42364
-1.2194
-1.03134
-0.895719
-0.813955
-0.783688
-0.773916
-0.775552
-0.728612
-0.73189
-0.73895
-0.753611
-0.78354
-0.841152
-0.952797
-1.17529
-1.59078
-2.12417
-2.24878
-1.844
-1.50865
-1.32445
-1.19321
-1.14063
-1.1099
-1.08245
-1.06302
-1.05693
-0.624945
-0.62754
-0.633102
-0.644848
-0.669292
-0.716732
-0.808733
-0.991408
-1.33315
-1.75009
-1.81119
-1.56572
-1.36933
-1.23726
-1.19303
-1.20053
-1.20084
-1.17761
-1.15908
-1.15098
-0.495858
-0.497307
-0.500483
-0.507706
-0.523491
-0.554702
-0.615524
-0.736456
-0.968817
-1.26501
-1.3274
-1.21348
-1.09618
-1.00175
-1.00934
-1.06363
-1.06583
-1.05291
-1.04241
-1.03709
-0.362539
-0.362849
-0.363756
-0.366567
-0.373779
-0.388856
-0.418815
-0.478979
-0.599349
-0.778802
-0.835682
-0.782138
-0.698503
-0.686569
-0.758742
-0.815859
-0.821712
-0.8181
-0.814581
-0.812192
-0.243226
-0.242741
-0.242137
-0.241876
-0.242913
-0.246187
-0.253612
-0.269339
-0.301855
-0.363966
-0.393185
-0.356634
-0.356878
-0.42277
-0.513274
-0.554953
-0.564606
-0.567489
-0.568884
-0.568631
-0.148425
-0.14759
-0.146334
-0.144677
-0.142596
-0.139654
-0.135276
-0.128435
-0.116763
-0.0926408
-0.0681667
-0.083411
-0.164192
-0.252973
-0.313233
-0.341829
-0.353722
-0.359402
-0.362929
-0.363821
-0.0805727
-0.0797231
-0.0784508
-0.0766468
-0.0738179
-0.0690571
-0.0611731
-0.0482983
-0.0277375
0.00188146
0.0210536
-0.00759007
-0.0778433
-0.140709
-0.181298
-0.199067
-0.208941
-0.214435
-0.217964
-0.219089
-0.0365868
-0.0358961
-0.0349063
-0.0335411
-0.0312114
-0.0269869
-0.0198532
-0.00849315
0.00820578
0.0279941
0.0338571
0.00872313
-0.0366314
-0.0761768
-0.101695
-0.11509
-0.121564
-0.125214
-0.127628
-0.128448
-0.0110164
-0.0105267
-0.0098599
-0.00907243
-0.0075873
-0.00466403
0.000390509
0.00825159
0.0189385
0.0293307
0.027943
0.00886732
-0.0187802
-0.042571
-0.0581193
-0.0664679
-0.0704787
-0.0726952
-0.0741493
-0.0746489
0.0016599
0.00197502
0.00236191
0.00269827
0.00344336
0.00513418
0.00820308
0.0129263
0.0189032
0.0234631
0.0197513
0.00645041
-0.0101362
-0.0240174
-0.0331654
-0.0381346
-0.0404924
-0.0417589
-0.0425711
-0.04285
0.00594368
0.00612871
0.00631666
0.0063601
0.00661142
0.00740841
0.00902614
0.0115423
0.0145304
0.0161604
0.0126953
0.00431439
-0.00516435
-0.0129093
-0.0180229
-0.020815
-0.022157
-0.0228771
-0.023318
-0.0234683
0.00509216
0.00518946
0.00525112
0.00515294
0.00513209
0.00540266
0.0061053
0.00723637
0.00851414
0.00895346
0.0068084
0.00247753
-0.00212845
-0.00581962
-0.00826938
-0.00968239
-0.010326
-0.0105891
-0.0108099
-0.0108864
0.00127854
0.0012977
0.00139871
0.0015006
0.00151818
0.00151332
0.00155043
0.00165018
0.0017901
0.00185865
0.00159001
0.000812399
-0.000163896
-0.00106626
-0.001732
-0.00209527
-0.00214383
-0.00203621
-0.00189715
-0.00191089
-0.628948
-0.427067
-0.195213
-0.000157469
0.157367
0.283778
0.389974
0.479597
0.519992
0.497395
-0.263862
-0.122404
0.0270109
0.156334
0.266067
0.357674
0.432049
0.484989
0.512207
0.523773
-0.00892826
0.0865027
0.187377
0.277043
0.354406
0.419278
0.470822
0.508455
0.535158
0.55257
0.173041
0.239175
0.30986
0.374388
0.430433
0.477926
0.516742
0.547449
0.572029
0.589966
0.311913
0.359917
0.411029
0.459605
0.502399
0.539564
0.571164
0.597208
0.618703
0.636325
0.424575
0.460515
0.501803
0.54043
0.575665
0.607048
0.634301
0.657027
0.675612
0.692862
0.522277
0.552736
0.588922
0.622923
0.654502
0.683036
0.70786
0.728373
0.744384
0.761438
0.614064
0.644375
0.679739
0.712942
0.743559
0.771013
0.794576
0.813581
0.82731
0.844361
0.711378
0.745179
0.782673
0.816996
0.847688
0.874428
0.89683
0.914444
0.926569
0.944001
0.827692
0.865691
0.904896
0.939654
0.969402
0.99449
1.01514
1.03125
1.04289
1.061
0.97348
1.0123
1.04854
1.07949
1.1054
1.1277
1.14693
1.1626
1.17513
1.19316
1.14868
1.18066
1.20701
1.22957
1.24969
1.26853
1.28634
1.3029
1.31832
1.33641
1.33756
1.3549
1.37011
1.38645
1.40243
1.41703
1.4303
1.44427
1.46186
1.48204
1.51967
1.52911
1.54069
1.55154
1.56086
1.5705
1.58137
1.59278
1.60417
1.61954
1.72682
1.73053
1.71561
1.70082
1.6946
1.70032
1.71882
1.74916
1.78136
1.80802
2.03317
1.89831
1.82172
1.77944
1.76203
1.766
1.79344
1.84985
1.95248
2.17685
0.314529
0.3124
0.307914
0.299288
0.287062
0.27493
0.264691
0.256772
0.251106
0.247766
0.247276
0.249854
0.254812
0.261915
0.27121
0.282679
0.295277
0.306275
0.312371
0.31541
0.238985
0.244832
0.251173
0.255668
0.258137
0.257808
0.255063
0.251229
0.247668
0.245315
0.245025
0.24705
0.25056
0.254721
0.258424
0.260229
0.259234
0.255704
0.250504
0.243868
0.230574
0.23287
0.236281
0.239288
0.241373
0.242874
0.243624
0.243284
0.242209
0.241226
0.24124
0.242483
0.244123
0.245277
0.245333
0.244341
0.242708
0.240305
0.236994
0.234055
0.225085
0.22617
0.228017
0.230419
0.232465
0.233908
0.234928
0.235655
0.235999
0.236109
0.236421
0.237013
0.237409
0.237296
0.236731
0.235752
0.234171
0.231992
0.229837
0.228433
0.219923
0.220582
0.221713
0.223461
0.225289
0.226958
0.228273
0.229272
0.230094
0.23077
0.231294
0.23158
0.231522
0.231133
0.230365
0.22913
0.227542
0.225864
0.224453
0.22365
0.215004
0.215455
0.216273
0.217646
0.219216
0.220809
0.222333
0.223649
0.224729
0.225639
0.226308
0.226571
0.226413
0.22584
0.224858
0.223612
0.22226
0.220935
0.219895
0.219357
0.210317
0.210647
0.211294
0.212466
0.21388
0.215359
0.216881
0.218377
0.219734
0.220873
0.221693
0.222002
0.221764
0.221084
0.22012
0.219016
0.217866
0.216743
0.215918
0.215522
0.205805
0.206047
0.206581
0.207632
0.208968
0.2104
0.211885
0.21341
0.214904
0.216249
0.217254
0.217664
0.217486
0.2169
0.216072
0.215107
0.214072
0.213095
0.212415
0.212117
0.201497
0.201672
0.202113
0.203068
0.204345
0.205739
0.2072
0.208716
0.210283
0.211822
0.213047
0.213616
0.213605
0.213219
0.212572
0.211755
0.21085
0.210001
0.209448
0.209226
0.197371
0.19749
0.197864
0.198775
0.200058
0.201471
0.203002
0.204631
0.2063
0.207957
0.209416
0.210317
0.210584
0.210364
0.209822
0.209107
0.208289
0.207515
0.207051
0.206892
0.193507
0.19357
0.193877
0.19472
0.195946
0.197307
0.198779
0.20041
0.202241
0.204187
0.205976
0.207165
0.207678
0.207749
0.207507
0.207025
0.206388
0.205752
0.205392
0.205294
0.189971
0.189995
0.190228
0.190937
0.192026
0.19331
0.194782
0.19647
0.198393
0.200543
0.202721
0.204392
0.205366
0.205796
0.20584
0.205646
0.205284
0.204883
0.204673
0.204625
0.186502
0.186509
0.186679
0.187244
0.188201
0.189417
0.190877
0.192674
0.194856
0.197416
0.200103
0.202267
0.203662
0.204469
0.204882
0.204987
0.204944
0.204825
0.204775
0.204754
0.182617
0.182621
0.182767
0.183219
0.184043
0.185187
0.186661
0.188561
0.190979
0.193965
0.197275
0.200129
0.202126
0.203468
0.204304
0.204849
0.205145
0.205309
0.205382
0.205372
0.177945
0.177946
0.178114
0.178551
0.179357
0.180546
0.182169
0.184378
0.187266
0.190894
0.195001
0.19862
0.20123
0.203067
0.204341
0.205204
0.205801
0.206171
0.206309
0.206302
0.172234
0.172229
0.172415
0.172929
0.17383
0.175174
0.177071
0.179678
0.183157
0.187606
0.192715
0.197286
0.200667
0.203092
0.204761
0.205985
0.206877
0.207395
0.207579
0.207583
0.165368
0.165348
0.165568
0.166208
0.167317
0.168974
0.171307
0.174533
0.178831
0.184341
0.190689
0.196407
0.20065
0.203711
0.205922
0.207513
0.208597
0.209209
0.209438
0.209457
0.157273
0.157234
0.157482
0.15828
0.159744
0.161822
0.164752
0.168774
0.174124
0.180964
0.188848
0.195972
0.201281
0.205128
0.20789
0.209863
0.211162
0.211901
0.212203
0.21224
0.147773
0.147714
0.148018
0.149
0.150833
0.153475
0.157181
0.162239
0.168924
0.177436
0.18722
0.196046
0.202649
0.207449
0.210873
0.213288
0.214863
0.21578
0.216173
0.216225
0.136499
0.136425
0.136817
0.138036
0.140258
0.143684
0.148351
0.154711
0.163105
0.173734
0.185857
0.196744
0.204879
0.210798
0.215031
0.217984
0.219947
0.221111
0.221607
0.221667
0.122745
0.122657
0.123194
0.124769
0.127558
0.13181
0.1378
0.145926
0.15655
0.169844
0.184831
0.198181
0.20812
0.215364
0.220538
0.224159
0.226593
0.228053
0.228666
0.228736
0.105497
0.105394
0.106159
0.108235
0.111874
0.117404
0.125181
0.135659
0.149178
0.165815
0.184267
0.20052
0.212564
0.221328
0.227606
0.232023
0.235024
0.236821
0.237561
0.237637
0.0833192
0.083218
0.0843655
0.0872621
0.0922085
0.0996482
0.109997
0.123693
0.140982
0.161762
0.184322
0.203918
0.218358
0.228868
0.236429
0.241792
0.245472
0.247672
0.248557
0.248637
0.0538432
0.0537868
0.0556373
0.0599741
0.0671403
0.0776569
0.0918364
0.109977
0.13211
0.157897
0.185199
0.208544
0.225649
0.238123
0.247161
0.253641
0.258127
0.260794
0.261842
0.261922
0.0128991
0.0130416
0.0164411
0.023817
0.0351132
0.0507275
0.070604
0.0947385
0.122905
0.154553
0.187139
0.214544
0.234516
0.249139
0.259853
0.267659
0.273146
0.276375
0.277581
0.277646
-0.0471984
-0.045781
-0.0375515
-0.0237269
-0.00474837
0.0189882
0.04686
0.0786295
0.113938
0.15213
0.190355
0.221978
0.244921
0.2618
0.274333
0.283632
0.290289
0.294219
0.29562
0.295673
-0.119151
-0.116854
-0.10129
-0.0772191
-0.0476904
-0.0144437
0.0222102
0.0621929
0.105216
0.150722
0.195631
0.23267
0.259754
0.279986
0.295311
0.30698
0.315547
0.320503
0.321971
0.322177
-0.193173
-0.185745
-0.162806
-0.12875
-0.0894941
-0.0470367
-0.00166876
0.0465219
0.0972944
0.15016
0.20187
0.244449
0.275728
0.299357
0.317606
0.331792
0.342356
0.348036
0.350438
0.351058
-0.251797
-0.24265
-0.214926
-0.174144
-0.12739
-0.0771834
-0.0240805
0.0316751
0.089747
0.149577
0.2076
0.25514
0.290013
0.316363
0.336707
0.352538
0.364385
0.371243
0.374691
0.375488
-0.299393
-0.289707
-0.258564
-0.212919
-0.160458
-0.104081
-0.0445377
0.0177976
0.0823999
0.148583
0.212338
0.264213
0.302011
0.330408
0.35224
0.369208
0.381952
0.389872
0.393621
0.394487
-0.339116
-0.329266
-0.295894
-0.24652
-0.189474
-0.128069
-0.0631073
0.00490875
0.0752888
0.147164
0.216055
0.271701
0.311902
0.341836
0.364668
0.382296
0.395545
0.403956
0.407899
0.408806
-0.373597
-0.363708
-0.328705
-0.276297
-0.215498
-0.149842
-0.0802082
-0.00722236
0.0683123
0.145342
0.218911
0.277938
0.320192
0.35133
0.374817
0.392743
0.40611
0.414669
0.418601
0.4196
-0.404415
-0.394534
-0.358295
-0.303369
-0.239425
-0.170114
-0.0963784
-0.0189473
0.0612719
0.143071
0.221017
0.283222
0.327392
0.359589
0.38358
0.401685
0.415063
0.423742
0.42765
0.428618
-0.432767
-0.422868
-0.385604
-0.32853
-0.261897
-0.189388
-0.112018
-0.0305788
0.0539477
0.140226
0.222406
0.287732
0.333754
0.366993
0.391504
0.409837
0.423283
0.431947
0.435904
0.43668
-0.459422
-0.449476
-0.411299
-0.352402
-0.283365
-0.208025
-0.127426
-0.0423546
0.0461565
0.136689
0.222993
0.291473
0.339479
0.37389
0.399035
0.417653
0.431188
0.439842
0.443789
0.444473
-0.484849
-0.474859
-0.435853
-0.375365
-0.304162
-0.226306
-0.142804
-0.0544301
0.037764
0.132336
0.222739
0.294555
0.344771
0.380528
0.406444
0.425468
0.439179
0.447833
0.45173
0.452393
-0.509468
-0.499333
-0.459501
-0.39762
-0.324493
-0.244389
-0.158277
-0.0669114
0.0286971
0.127135
0.221667
0.296988
0.349627
0.38697
0.413851
0.433424
0.447407
0.45611
0.459888
0.460538
-0.533437
-0.523079
-0.482578
-0.419329
-0.344483
-0.26238
-0.173924
-0.0798356
0.0189282
0.121055
0.219662
0.298663
0.354022
0.393233
0.421303
0.441581
0.45592
0.464691
0.468343
0.468943
-0.556799
-0.546242
-0.505113
-0.440583
-0.364201
-0.280306
-0.189752
-0.093214
0.00843441
0.114003
0.216617
0.299492
0.357902
0.399292
0.428791
0.449932
0.464698
0.473529
0.477034
0.477528
-0.579693
-0.568864
-0.527036
-0.461389
-0.383651
-0.298162
-0.205752
-0.107035
-0.00279163
0.105966
0.212476
0.29935
0.361116
0.405064
0.436284
0.458453
0.4737
0.482569
0.485872
0.486226
-0.602028
-0.590934
-0.548449
-0.481768
-0.402807
-0.315915
-0.221873
-0.121247
-0.0146989
0.0969675
0.207175
0.29809
0.363499
0.410413
0.443732
0.467127
0.482858
0.491651
0.494688
0.494891
-0.623823
-0.612459
-0.56931
-0.501687
-0.421633
-0.333513
-0.238052
-0.135763
-0.027204
0.0870409
0.20067
0.295575
0.364843
0.415164
0.451079
0.476
0.492183
0.500684
0.503307
0.503348
-0.644937
-0.633359
-0.589561
-0.521089
-0.440066
-0.350871
-0.254208
-0.150499
-0.0402243
0.0762541
0.192957
0.291687
0.364912
0.41905
0.458214
0.485207
0.501847
0.50964
0.511543
0.511388
-0.665455
-0.653583
-0.609173
-0.539939
-0.458064
-0.367942
-0.270246
-0.165366
-0.0536617
0.0647107
0.184069
0.286329
0.363478
0.421707
0.464865
0.494908
0.512412
0.518869
0.519281
0.518779
-0.68525
-0.673089
-0.628117
-0.558183
-0.475544
-0.38464
-0.28608
-0.18024
-0.0673919
0.0524998
0.174082
0.279453
0.360334
0.422683
0.470471
0.505002
0.524863
0.52991
0.527201
0.525231
-0.704343
-0.691938
-0.646342
-0.575768
-0.492467
-0.400897
-0.301626
-0.195035
-0.0812934
0.0397756
0.16311
0.27104
0.355346
0.421507
0.474054
0.514545
0.539584
0.546144
0.539847
0.52892
-0.722668
-0.71007
-0.663953
-0.592843
-0.509037
-0.416992
-0.317222
-0.21016
-0.0958356
0.0260017
0.150564
0.26043
0.34785
0.417494
0.474074
0.521396
0.554558
0.566779