/*--------------------------------*- C++ -*----------------------------------*\
  =========                 |
  \\      /  F ield         | OpenFOAM: The Open Source CFD Toolbox
   \\    /   O peration     | Website:  https://openfoam.org
    \\  /    A nd           | Version:  9
     \\/     M anipulation  |
\*---------------------------------------------------------------------------*/
FoamFile
{
    format      ascii;
    class       surfaceScalarField;
    location    "23";
    object      phi;
}
// * * * * * * * * * * * * * * * * * * * * * * * * * * * * * * * * * * * * * //

dimensions      [0 3 -1 0 0 0 0];

internalField   nonuniform List<scalar> 
17370
(
-0.0916065
0.0960086
0.284609
-0.0775931
0.0594172
0.364951
-0.0430374
0.0316152
0.42759
-0.0223068
0.0162483
0.50531
-0.0116467
0.0087643
0.602285
-0.00654526
0.00505837
0.720544
-0.00382765
0.00295969
0.863774
-0.00220491
0.00164459
1.03601
-0.00113215
0.00072529
1.24291
-0.000322424
-5.8105e-05
1.49157
0.000438169
-0.000846716
1.4916
0.00124932
-0.00175465
1.2432
0.00230755
-0.0030537
1.03638
0.00391345
-0.00513518
0.864128
0.00661438
-0.00882495
0.721268
0.011698
-0.0162871
0.603804
0.0223335
-0.0316292
0.508735
0.0430387
-0.059411
0.43254
0.0775893
-0.0960051
0.365191
0.091616
0.197395
-0.127091
0.0880243
0.0390668
-0.364355
0.354029
-0.0714724
0.0817983
-0.446652
0.45425
-0.0791673
0.071569
-0.521009
0.529108
-0.0637166
0.0556172
-0.612985
0.62075
-0.048233
0.0404673
-0.727159
0.733675
-0.0338592
0.0273428
-0.867575
0.872423
-0.0221422
0.0172937
-1.03856
1.04188
-0.0136026
0.0102814
-1.24471
1.24708
-0.00775364
0.00537957
-1.49282
1.4948
-0.00344733
0.00147262
-1.49267
1.49446
0.000321905
-0.00211232
-1.2441
1.24601
0.00406419
-0.00596841
-1.03761
1.0401
0.00830749
-0.010802
-0.866189
0.869846
0.014086
-0.0177425
-0.724605
0.729771
0.0225531
-0.0277195
-0.609073
0.615648
0.0341991
-0.0407745
-0.515131
0.522478
0.0485036
-0.0558509
-0.43988
0.447682
0.0638973
-0.0716987
-0.374723
0.377366
0.0792251
-0.0818681
-0.256924
0.224484
0.0715268
-0.0390866
-0.0688128
0.0592063
0.00960649
-0.0520817
0.0589059
-0.374838
0.368014
-0.0580519
0.054202
-0.45394
0.45779
-0.0487017
0.0441258
-0.527601
0.532176
-0.039556
0.0356424
-0.620777
0.624691
-0.03142
0.0274387
-0.734633
0.738615
-0.0231255
0.019297
-0.873934
0.877763
-0.0153272
0.0119358
-1.04333
1.04672
-0.00848203
0.00550087
-1.24859
1.25157
-0.00234133
-0.000601559
-1.49688
1.49982
0.00353618
-0.00665982
-1.49737
1.50049
0.00959109
-0.0129778
-1.25005
1.25344
0.0163003
-0.0201912
-1.04567
1.04956
0.0239495
-0.0281894
-0.877167
0.881407
0.0321051
-0.0362573
-0.739015
0.743168
0.0401114
-0.0446235
-0.626006
0.630518
0.0491536
-0.0546103
-0.53505
0.540506
0.0584102
-0.0592067
-0.458124
0.458921
0.0523019
-0.0319804
-0.336844
0.316523
0.00964577
-0.0687163
0.0590705
-0.0534228
0.0493221
0.00410072
-0.0331739
0.0435766
-0.358574
0.348171
-0.0472471
0.0466695
-0.459578
0.460155
-0.0437607
0.0405692
-0.536128
0.53932
-0.036911
0.0335674
-0.628371
0.631715
-0.0299407
0.0267073
-0.741979
0.745213
-0.0232624
0.0200896
-0.881241
0.884413
-0.016547
0.0132524
-1.05012
1.05341
-0.0096311
0.00630986
-1.25479
1.25811
-0.00262433
-0.000893657
-1.50312
1.50664
0.00438917
-0.00801969
-1.50394
1.50757
0.0112694
-0.0147953
-1.25697
1.2605
0.0179947
-0.0214287
-1.05326
1.05669
0.0245015
-0.0278375
-0.885027
0.888363
0.0309751
-0.0345043
-0.746873
0.750402
0.0377635
-0.0413338
-0.63467
0.63824
0.0444504
-0.0472778
-0.54468
0.547507
0.0477739
-0.0439941
-0.457079
0.453299
0.0334604
-0.016263
-0.297289
0.280091
0.0041434
-0.053248
0.0491046
-0.0461649
0.0436279
0.00253695
-0.0229093
0.0331987
-0.337612
0.327323
-0.0388861
0.0398108
-0.459894
0.45897
-0.0385436
0.0362141
-0.541929
0.544258
-0.0335768
0.0310479
-0.634636
0.637165
-0.0281089
0.0253155
-0.748274
0.751068
-0.0221557
0.0192286
-0.887458
0.890385
-0.0159825
0.0129591
-1.05655
1.05957
-0.00953526
0.00625628
-1.26144
1.26472
-0.00246547
-0.00123178
-1.51029
1.51399
0.00490166
-0.00861613
-1.51128
1.515
0.0117954
-0.0150895
-1.26392
1.26721
0.0179821
-0.0210781
-1.05991
1.063
0.023865
-0.0268733
-0.891592
0.8946
0.0295324
-0.0323327
-0.75361
0.756411
0.034746
-0.0372699
-0.641196
0.64372
0.0395071
-0.0406559
-0.549368
0.550516
0.0396105
-0.0337501
-0.448264
0.442403
0.0232731
-0.0102083
-0.265046
0.251982
0.00258984
-0.0458993
0.0433094
-0.0415327
0.0397622
0.00177055
-0.0167082
0.0258855
-0.317534
0.308357
-0.0324037
0.034489
-0.457443
0.455358
-0.034039
0.0323318
-0.546301
0.548008
-0.0300979
0.0279754
-0.639439
0.641562
-0.0255719
0.0232628
-0.753576
0.755885
-0.0205636
0.0179467
-0.893149
0.895766
-0.014917
0.0120279
-1.06253
1.06542
-0.00872276
0.00556726
-1.26794
1.27109
-0.00192283
-0.00162271
-1.51763
1.52118
0.00513687
-0.00868613
-1.51865
1.5222
0.0117103
-0.014841
-1.27042
1.27355
0.0175576
-0.020391
-1.06597
1.0688
0.0228273
-0.0253335
-0.897335
0.899841
0.0274757
-0.0297099
-0.758862
0.761096
0.0316827
-0.0337634
-0.646014
0.648095
0.0353307
-0.0356143
-0.551193
0.551477
0.0333436
-0.0265766
-0.435992
0.429225
0.0171537
-0.00723796
-0.240628
0.230712
0.00183465
-0.0411559
0.0393213
-0.0382461
0.0369444
0.00130169
-0.0125215
0.0202997
-0.299863
0.292084
-0.0268937
0.0297532
-0.452816
0.449957
-0.0299862
0.0289276
-0.549371
0.55043
-0.0270392
0.0252017
-0.64354
0.645378
-0.0230804
0.0210207
-0.758074
0.760134
-0.01862
0.0162779
-0.898249
0.900591
-0.0135377
0.010871
-1.06822
1.07088
-0.00777189
0.00478318
-1.27417
1.27716
-0.00131115
-0.00208379
-1.52463
1.52803
0.00543382
-0.00877881
-1.52564
1.52899
0.0115995
-0.0144742
-1.27658
1.27946
0.0169159
-0.0194009
-1.07149
1.07397
0.0215101
-0.0236639
-0.902174
0.904327
0.0255112
-0.0274159
-0.763169
0.765074
0.0290703
-0.03078
-0.649958
0.651668
0.0316466
-0.0311929
-0.55136
0.550906
0.0280783
-0.0211526
-0.422291
0.415365
0.0130653
-0.00542654
-0.222022
0.214383
0.00138003
-0.0377351
0.036355
-0.0358227
0.0348517
0.000970969
-0.00949036
0.015909
-0.285005
0.278586
-0.0221012
0.0252977
-0.446896
0.4437
-0.0259907
0.0252872
-0.551272
0.551976
-0.0235654
0.0218602
-0.647129
0.648834
-0.0199351
0.0181152
-0.762074
0.763894
-0.016023
0.0139862
-0.902781
0.904818
-0.011595
0.0092422
-1.07338
1.07573
-0.00646523
0.00372912
-1.28002
1.28276
-0.00050152
-0.00266615
-1.53133
1.5345
0.00577754
-0.00883409
-1.5322
1.53526
0.0113489
-0.0138421
-1.28214
1.28464
0.0159141
-0.0179874
-1.07624
1.07832
0.0197378
-0.021531
-0.906296
0.908089
0.0230813
-0.0247191
-0.76682
0.768458
0.026185
-0.0276585
-0.653263
0.654736
0.0281143
-0.0271086
-0.550173
0.549168
0.0235655
-0.0169462
-0.408563
0.401943
0.0101481
-0.00417544
-0.207641
0.201668
0.00106629
-0.0351485
0.0340822
-0.0340143
0.0333036
0.000710725
-0.00706825
0.0122086
-0.272812
0.267672
-0.0177441
0.0210659
-0.44041
0.437088
-0.0222487
0.0218534
-0.552553
0.552948
-0.0204848
0.0189679
-0.650481
0.651998
-0.0172353
0.0156011
-0.76563
0.767265
-0.0137133
0.0118599
-0.90674
0.908593
-0.0096623
0.00749698
-1.07796
1.08013
-0.00493707
0.00243135
-1.28536
1.28787
0.00049886
-0.00334513
-1.5375
1.54035
0.00612253
-0.00884564
-1.53815
1.54088
0.0110698
-0.0132638
-1.28697
1.28916
0.0150681
-0.0168517
-1.08022
1.08201
0.0183304
-0.0198299
-0.909712
0.911212
0.0211389
-0.022537
-0.769996
0.771394
0.0237604
-0.024809
-0.656031
0.657079
0.0248887
-0.0232979
-0.547866
0.546275
0.019531
-0.0134649
-0.395568
0.389502
0.00786536
-0.00321532
-0.19639
0.19174
0.000827471
-0.033142
0.0323145
-0.0327043
0.0322031
0.000501232
-0.00509708
0.00905798
-0.263133
0.259172
-0.0137246
0.0168938
-0.433801
0.430632
-0.0183998
0.0183639
-0.553156
0.553192
-0.0174431
0.0162131
-0.653367
0.654597
-0.0146977
0.0131922
-0.768859
0.770364
-0.0114086
0.00965056
-0.910425
0.912183
-0.00758541
0.00557164
-1.08221
1.08423
-0.00322721
0.000956507
-1.29023
1.2925
0.00167458
-0.00421305
-1.54301
1.54555
0.0066623
-0.00902129
-1.54342
1.54578
0.0109294
-0.0128142
-1.29121
1.2931
0.0143722
-0.0159292
-1.0837
1.08526
0.0172418
-0.0185651
-0.912639
0.913962
0.0196547
-0.0207285
-0.772618
0.773692
0.0215879
-0.0220725
-0.657843
0.658328
0.0216895
-0.0196428
-0.544424
0.542377
0.0159065
-0.0105879
-0.383791
0.378472
0.00607098
-0.00247661
-0.187651
0.184056
0.000646224
-0.03159
0.0309438
-0.0317931
0.0314767
0.000316445
-0.00331517
0.00615745
-0.255771
0.252928
-0.00982448
0.0125671
-0.427648
0.424906
-0.0140753
0.0141789
-0.553143
0.55304
-0.013457
0.012346
-0.655774
0.656885
-0.011006
0.00972563
-0.771817
0.773098
-0.00824555
0.00678568
-0.913816
0.915275
-0.00504472
0.00332313
-1.08606
1.08778
-0.00128634
-0.000711119
-1.29461
1.29661
0.00304964
-0.0053122
-1.54795
1.55021
0.0074534
-0.0094307
-1.54798
1.54996
0.0109591
-0.0124109
-1.29477
1.29622
0.0135555
-0.0146236
-1.08659
1.08766
0.0154733
-0.0163284
-0.915065
0.91592
0.0170876
-0.0178962
-0.774617
0.775425
0.018554
-0.0187194
-0.658624
0.65879
0.0180864
-0.0159038
-0.540236
0.538053
0.0124651
-0.00800946
-0.373584
0.369128
0.00449894
-0.0018375
-0.180943
0.178282
0.000494928
-0.0303803
0.0298854
-0.0312603
0.0311356
0.000124617
-0.00165383
0.00345255
-0.250629
0.24883
-0.00613747
0.00841446
-0.422417
0.42014
-0.00986405
0.0101055
-0.552913
0.552671
-0.00959453
0.00872769
-0.657913
0.65878
-0.00767779
0.00667251
-0.774275
0.775281
-0.00547606
0.00423037
-0.916604
0.91785
-0.00268249
0.00111226
-1.08933
1.0909
0.000767016
-0.00258948
-1.29844
1.30026
0.00468568
-0.00664511
-1.55229
1.55425
0.00846451
-0.0101289
-1.55178
1.55345
0.0113783
-0.0124895
-1.29747
1.29858
0.0132984
-0.0140062
-1.0885
1.08921
0.014516
-0.0149608
-0.916546
0.916991
0.0153291
-0.0157262
-0.776011
0.776408
0.0160017
-0.015805
-0.65882
0.658624
0.0148455
-0.0125093
-0.53585
0.533514
0.00935811
-0.00571516
-0.365105
0.361462
0.00310912
-0.00126105
-0.176068
0.17422
0.000347343
-0.0294796
0.0291322
-0.0310968
0.0311256
-2.87119e-05
-0.000394279
0.00131884
-0.247496
0.246572
-0.00306391
0.00485946
-0.418093
0.416297
-0.00631605
0.00685436
-0.55228
0.551742
-0.00670763
0.00615009
-0.659494
0.660052
-0.00530126
0.00441379
-0.776296
0.777183
-0.00328105
0.00207362
-0.919048
0.920255
-0.000563163
-0.000970206
-1.09236
1.09389
0.00278313
-0.00454415
-1.30199
1.30375
0.00653142
-0.0083467
-1.5561
1.55792
0.00998186
-0.0114121
-1.55504
1.55647
0.0124287
-0.0133042
-1.29964
1.30052
0.0138991
-0.0143414
-1.08985
1.09029
0.0146283
-0.0148458
-0.91727
0.917488
0.0149269
-0.014899
-0.77647
0.776442
0.014657
-0.0138793
-0.658113
0.657335
0.0124272
-0.00987583
-0.531088
0.528536
0.0070281
-0.00412555
-0.358228
0.355325
0.0022065
-0.00089243
-0.172704
0.17139
0.000245904
-0.0288605
0.0286146
-0.0312132
0.0313438
-0.000130554
0.000359588
-3.9707e-05
-0.246003
0.245683
-0.000865861
0.00199923
-0.414842
0.413709
-0.00309613
0.00360111
-0.551165
0.55066
-0.00355438
0.0031581
-0.660517
0.660914
-0.00246183
0.0016499
-0.778135
0.778947
-0.000535711
-0.000698206
-0.921432
0.922666
0.00222935
-0.00373234
-1.09531
1.09681
0.0054625
-0.00708439
-1.30538
1.307
0.00887514
-0.0104794
-1.55959
1.56119
0.0118562
-0.0129632
-1.55777
1.55888
0.0136502
-0.0141303
-1.30124
1.30172
0.0143905
-0.0144954
-1.09059
1.09069
0.0144657
-0.0143278
-0.917494
0.917356
0.014174
-0.0139179
-0.776202
0.775946
0.0134096
-0.0123562
-0.656362
0.655309
0.0107369
-0.00829752
-0.526079
0.52364
0.00586373
-0.00350737
-0.352792
0.350436
0.00192832
-0.000794336
-0.170241
0.169107
0.000216839
-0.0284133
0.0281965
-0.0315001
0.0316822
-0.000182062
0.000763773
-0.000770915
-0.245573
0.24558
0.000414971
0.000112651
-0.412934
0.412406
-0.000602382
0.000713954
-0.550306
0.550194
-0.00042072
-0.000110813
-0.661354
0.661885
0.000945977
-0.00183457
-0.779942
0.780831
0.00298791
-0.00421843
-0.923837
0.925068
0.00569007
-0.00709573
-1.09814
1.09955
0.00867315
-0.0101264
-1.30845
1.3099
0.0117046
-0.0130654
-1.56263
1.56399
0.0141439
-0.0148922
-1.55982
1.56056
0.0152508
-0.0153984
-1.3021
1.30225
0.0153686
-0.0152129
-1.09067
1.09051
0.0149618
-0.0145883
-0.917058
0.916684
0.0141614
-0.0136035
-0.775423
0.774865
0.0128967
-0.0117727
-0.654167
0.653043
0.0102409
-0.00805626
-0.521421
0.519236
0.00588479
-0.00368665
-0.348283
0.346085
0.00210401
-0.000891208
-0.167995
0.166782
0.000246866
-0.027991
0.0277441
-0.0318876
0.0321141
-0.000226548
0.00108236
-0.00129516
-0.245692
0.245905
0.00120004
-0.000979665
-0.412122
0.411902
0.000901705
-0.0011891
-0.55031
0.550597
0.00194657
-0.00285611
-0.662665
0.663575
0.00392477
-0.00498559
-0.781954
0.783015
0.00627919
-0.00757923
-0.926193
0.927493
0.0090884
-0.0105094
-1.1008
1.10222
0.0121052
-0.0135547
-1.31123
1.31268
0.0150687
-0.0162888
-1.56519
1.56641
0.0171715
-0.0176783
-1.56115
1.56166
0.0177744
-0.017588
-1.30228
1.3021
0.0172614
-0.0167943
-1.09023
1.08976
0.0163089
-0.0157694
-0.916154
0.915615
0.0152404
-0.0145716
-0.774117
0.773448
0.0138324
-0.0127198
-0.651913
0.6508
0.0112085
-0.0089679
-0.517208
0.514967
0.00664757
-0.00422867
-0.343901
0.341482
0.00245387
-0.00106621
-0.165537
0.16415
0.000305517
-0.0274969
0.0271914
-0.0323701
0.0326573
-0.000287196
0.0015433
-0.00199789
-0.246208
0.246662
0.00208556
-0.00190487
-0.411765
0.411584
0.00178633
-0.00207048
-0.550901
0.551185
0.00279996
-0.00375663
-0.664665
0.665622
0.00499597
-0.00628511
-0.784332
0.785621
0.00791766
-0.00955124
-0.928795
0.930429
0.0114242
-0.013213
-1.10366
1.10545
0.015229
-0.0170548
-1.31418
1.316
0.0189305
-0.0204164
-1.56764
1.56913
0.0214888
-0.0221072
-1.56216
1.56278
0.0222504
-0.0220331
-1.30188
1.30166
0.0215785
-0.0208573
-1.08906
1.08834
0.0201073
-0.0192626
-0.914941
0.914097
0.0185012
-0.0177585
-0.772682
0.771939
0.016852
-0.0153729
-0.64958
0.648101
0.0133016
-0.0103789
-0.512597
0.509674
0.00755515
-0.00478017
-0.338992
0.336217
0.00280274
-0.00124854
-0.162741
0.161187
0.000370011
-0.0268885
0.0265185
-0.0329899
0.0333695
-0.000379633
0.00223821
-0.00309034
-0.247286
0.248138
0.00358112
-0.00349491
-0.411464
0.411377
0.00311289
-0.00304213
-0.551318
0.551247
0.00344108
-0.00415817
-0.666601
0.667318
0.00533303
-0.00679778
-0.787144
0.788608
0.00878366
-0.0108555
-0.932082
0.934154
0.0133648
-0.0157968
-1.10738
1.10982
0.0185368
-0.0210145
-1.31803
1.32051
0.0235782
-0.0256454
-1.57082
1.57289
0.0272098
-0.0282417
-1.56357
1.5646
0.0286639
-0.0286979
-1.30159
1.30162
0.0284206
-0.0278604
-1.08763
1.08707
0.0270832
-0.025971
-0.91295
0.911838
0.0248302
-0.0233464
-0.770802
0.769318
0.0213981
-0.0186307
-0.646152
0.643385
0.0154277
-0.0115681
-0.506473
0.502613
0.00827395
-0.0052605
-0.333446
0.330432
0.0031406
-0.00143364
-0.159642
0.157935
0.000435496
-0.0261589
0.0257234
-0.0338153
0.0343326
-0.000517253
0.00320596
-0.00463799
-0.249267
0.250699
0.0057894
-0.00620629
-0.411513
0.411929
0.00587995
-0.0054279
-0.551011
0.550559
0.00538823
-0.00589282
-0.668075
0.66858
0.00698449
-0.00854462
-0.790204
0.791765
0.0109243
-0.0135549
-0.936287
0.938917
0.0167608
-0.0198502
-1.11241
1.1155
0.0232968
-0.0263815
-1.32319
1.32628
0.0295649
-0.0321308
-1.57517
1.57774
0.034059
-0.0353539
-1.56579
1.56708
0.0359025
-0.0359739
-1.30176
1.30183
0.035639
-0.0348831
-1.08634
1.08559
0.0338638
-0.0324254
-0.910413
0.908975
0.0306758
-0.0280767
-0.767191
0.764592
0.0250086
-0.0209295
-0.640024
0.635944
0.0168308
-0.0124389
-0.498664
0.494272
0.00895966
-0.00583183
-0.327536
0.324408
0.00356412
-0.00165839
-0.15624
0.154334
0.000510702
-0.0253038
0.0247931
-0.0349278
0.0356376
-0.000709742
0.00446163
-0.00663583
-0.252484
0.254658
0.00871164
-0.00995432
-0.412707
0.413949
0.0103659
-0.0101682
-0.550404
0.550206
0.00996696
-0.010388
-0.669147
0.669568
0.0116679
-0.0136326
-0.793473
0.795438
0.0165327
-0.01961
-0.941532
0.944609
0.0232958
-0.0268012
-1.11863
1.12213
0.0306555
-0.0340431
-1.32942
1.33281
0.0374461
-0.0400703
-1.58031
1.58293
0.0418889
-0.0428971
-1.56825
1.56926
0.0431197
-0.0427373
-1.30174
1.30136
0.0419133
-0.040596
-1.08449
1.08318
0.0390384
-0.0368513
-0.907016
0.904829
0.0342551
-0.0306816
-0.761281
0.757708
0.026868
-0.0222071
-0.631588
0.626927
0.0178788
-0.013452
-0.49013
0.485703
0.0099477
-0.00666168
-0.321455
0.318169
0.00414188
-0.00194368
-0.152423
0.150225
0.000599213
-0.0243045
0.0237053
-0.0364349
0.037395
-0.000960077
0.00602145
-0.00906471
-0.257213
0.260256
0.0122018
-0.0144613
-0.415724
0.417983
0.015955
-0.016721
-0.55095
0.551716
0.0174132
-0.0184543
-0.670373
0.671415
0.020407
-0.0228714
-0.797458
0.799922
0.0261545
-0.0295141
-0.947521
0.950881
0.0334519
-0.0371276
-1.12551
1.12918
0.041076
-0.0444256
-1.33605
1.3394
0.0475978
-0.0498031
-1.58529
1.5875
0.0510291
-0.0512789
-1.5699
1.57015
0.0507228
-0.0494086
-1.30054
1.29923
0.04771
-0.0454385
-1.08131
1.07904
0.0429925
-0.0398576
-0.901924
0.898789
0.0365739
-0.0325197
-0.753623
0.749569
0.0284677
-0.0238157
-0.622323
0.617671
0.0196081
-0.0152384
-0.481705
0.477335
0.0115794
-0.00791156
-0.315029
0.311361
0.00497202
-0.00233921
-0.147988
0.145356
0.000718999
-0.0231325
0.0224135
-0.0384469
0.0397543
-0.00130742
0.00809396
-0.012195
-0.26368
0.267781
0.0165357
-0.0199398
-0.420998
0.424402
0.0227278
-0.0247001
-0.553799
0.555771
0.0267004
-0.0288821
-0.673195
0.675376
0.0318583
-0.0350404
-0.802366
0.805548
0.0389081
-0.0426515
-0.95405
0.957794
0.0468571
-0.0506332
-1.13263
1.1364
0.0545143
-0.0576099
-1.34244
1.34554
0.0602455
-0.0616906
-1.58923
1.59068
0.0619546
-0.0610465
-1.56979
1.56888
0.0593909
-0.0568969
-1.29729
1.2948
0.0541735
-0.0507949
-1.07612
1.07274
0.0474155
-0.0434843
-0.894982
0.891051
0.0397083
-0.0353968
-0.745082
0.74077
0.0313137
-0.0267566
-0.613129
0.608572
0.0225815
-0.0180198
-0.47336
0.468799
0.0139205
-0.00962869
-0.307806
0.303514
0.00607941
-0.00285044
-0.142672
0.139443
0.000869546
-0.0217311
0.0208616
-0.0411468
0.0429783
-0.0018315
0.0110771
-0.0165711
-0.272262
0.277756
0.022341
-0.0269434
-0.428814
0.433416
0.0310034
-0.0342069
-0.559291
0.562494
0.0376583
-0.0412045
-0.678409
0.681955
0.0455009
-0.0496829
-0.808788
0.81297
0.0544202
-0.0587486
-0.961417
0.965745
0.0633602
-0.0672821
-1.13994
1.14386
0.0710593
-0.0738008
-1.34823
1.35097
0.0757346
-0.0762286
-1.59151
1.592
0.0753351
-0.0730917
-1.56723
1.56499
0.0702212
-0.0664586
-1.29162
1.28786
0.0626377
-0.058166
-1.06869
1.06422
0.0539404
-0.0492723
-0.886455
0.881787
0.0450158
-0.0403819
-0.735941
0.731308
0.0361283
-0.0314012
-0.603948
0.599221
0.0269398
-0.0218243
-0.464488
0.459373
0.0170016
-0.0117462
-0.299318
0.294063
0.00735953
-0.00341644
-0.136194
0.132251
0.0010285
-0.0200388
0.0190103
-0.0448596
0.0475094
-0.00264974
0.0155489
-0.0229318
-0.283619
0.291002
0.0304678
-0.0364641
-0.439511
0.445507
0.0419137
-0.0464459
-0.567609
0.572141
0.0515228
-0.0565588
-0.68634
0.691376
0.0623686
-0.0677274
-0.817253
0.822611
0.0734969
-0.0785154
-0.969999
0.975017
0.0835883
-0.0876438
-1.14752
1.15157
0.0912338
-0.0934952
-1.35322
1.35549
0.094556
-0.0939342
-1.59177
1.59115
0.091741
-0.0880614
-1.56193
1.55825
0.0839178
-0.0788277
-1.28337
1.27828
0.0738783
-0.0683068
-1.05906
1.05349
0.0632209
-0.0577624
-0.876385
0.870927
0.0529268
-0.0477916
-0.725967
0.720832
0.0431288
-0.0378904
-0.594181
0.588943
0.032794
-0.026736
-0.454368
0.44831
0.0208597
-0.0143758
-0.28894
0.282457
0.00895521
-0.00411792
-0.128307
0.12347
0.00122461
-0.0180359
0.0168112
-0.0501527
0.0542382
-0.00408555
0.0228145
-0.0329012
-0.298873
0.30896
0.0428261
-0.0505565
-0.453867
0.461597
0.0575899
-0.0636567
-0.57909
0.585157
0.0706299
-0.0772938
-0.697198
0.703862
0.0846531
-0.0911515
-0.828003
0.834501
0.0978537
-0.103421
-0.979882
0.985449
0.108743
-0.112701
-1.15524
1.1592
0.11582
-0.117331
-1.35711
1.35862
0.117227
-0.115243
-1.58965
1.58766
0.111551
-0.106286
-1.55367
1.5484
0.100776
-0.0942877
-1.27242
1.26593
0.0881722
-0.081449
-1.04719
1.04047
0.0754258
-0.0690582
-0.864617
0.858249
0.0634968
-0.0576527
-0.714735
0.708891
0.0523482
-0.0462858
-0.58311
0.577047
0.0402357
-0.0328767
-0.442221
0.434862
0.0256289
-0.0175858
-0.276152
0.268109
0.0108612
-0.0049238
-0.118715
0.112778
0.00143586
-0.0156665
0.0142306
-0.0581088
0.0653138
-0.00720497
0.0362729
-0.0505241
-0.320205
0.334457
0.0639456
-0.0737076
-0.47299
0.482752
0.082284
-0.0899684
-0.594241
0.601925
0.0989495
-0.107042
-0.711054
0.719147
0.115519
-0.122668
-0.840799
0.847948
0.129719
-0.135273
-0.990595
0.99615
0.140236
-0.143542
-1.16249
1.1658
0.145633
-0.1459
-1.35923
1.3595
0.144165
-0.140433
-1.58458
1.58085
0.134956
-0.127905
-1.54208
1.53503
0.120898
-0.112928
-1.2586
1.25063
0.105583
-0.0976435
-1.03298
1.02504
0.0906129
-0.0832506
-0.850929
0.843566
0.0768602
-0.070167
-0.701824
0.695131
0.064073
-0.0569825
-0.570061
0.562971
0.0496211
-0.0405351
-0.427246
0.41816
0.0315136
-0.0215269
-0.260242
0.250255
0.0131842
-0.0058863
-0.107132
0.0998344
0.00166245
-0.0129243
0.0112618
-0.0721761
0.0758867
-0.00371059
0.0265076
-0.0388966
-0.351584
0.363973
0.0505075
-0.0595474
-0.49757
0.50661
0.0685709
-0.0780109
-0.61297
0.62241
0.0886461
-0.0981306
-0.726917
0.736402
0.108667
-0.117972
-0.854336
0.863641
0.127631
-0.135922
-1.00076
1.00905
0.144177
-0.150799
-1.16797
1.17459
0.156705
-0.160581
-1.3585
1.36238
0.16267
-0.162093
-1.57577
1.5752
0.158715
-0.152945
-1.52676
1.52099
0.146137
-0.137492
-1.24172
1.23308
0.129076
-0.119026
-1.01627
1.00623
0.109921
-0.100063
-0.835177
0.825318
0.0913799
-0.0821831
-0.686963
0.677767
0.0734817
-0.0635605
-0.554509
0.544588
0.0534182
-0.0410292
-0.408518
0.396129
0.0296214
-0.0182152
-0.240272
0.228866
0.00987473
-0.00377725
-0.0931736
0.0870761
0.000836114
-0.00990319
0.00906708
-0.0829392
0.0805323
0.00240692
0.00447719
-0.0121247
-0.379352
0.387
0.0207388
-0.027749
-0.520363
0.527374
0.0360784
-0.0443614
-0.633199
0.641482
0.0540021
-0.062778
-0.745778
0.754554
0.0720932
-0.0805316
-0.872484
0.880922
0.0892949
-0.0965264
-1.01706
1.02429
0.10392
-0.109505
-1.18103
1.18661
0.114411
-0.117287
-1.36593
1.3688
0.118082
-0.116461
-1.5737
1.57208
0.11213
-0.105506
-1.51425
1.50763
0.0978751
-0.0885321
-1.22378
1.21443
0.0795962
-0.0694385
-0.995662
0.985504
0.0600058
-0.0496561
-0.814085
0.803735
0.040565
-0.0314373
-0.665549
0.656422
0.0237264
-0.015831
-0.531602
0.523707
0.00894095
-0.00276441
-0.382933
0.376757
-0.000843166
0.00279612
-0.216916
0.214963
-0.00305287
0.00207839
-0.0803814
0.0813559
-0.000878691
-0.00770529
0.00858399
-0.0833731
0.0802837
0.00308945
-0.00399603
0.000161924
-0.397691
0.401525
0.00540595
-0.0108833
-0.538328
0.543805
0.0178539
-0.0250067
-0.650661
0.657814
0.0332518
-0.0408115
-0.762812
0.770371
0.0490698
-0.0563985
-0.888732
0.89606
0.0637917
-0.0702531
-1.03139
1.03785
0.0766742
-0.08163
-1.19182
1.19677
0.0855703
-0.0876552
-1.37107
1.37316
0.0880275
-0.08597
-1.56982
1.56776
0.0814039
-0.0747741
-1.50045
1.49382
0.0673885
-0.0586604
-1.20506
1.19634
0.0500392
-0.0405816
-0.975066
0.965609
0.0318621
-0.0223732
-0.793358
0.783869
0.0142512
-0.00605165
-0.645632
0.637433
-0.000542765
0.00684596
-0.513043
0.50674
-0.0112778
0.0136789
-0.368376
0.365975
-0.0132677
0.010886
-0.210021
0.212402
-0.00773957
0.00407615
-0.0810405
0.0847039
-0.00139853
-0.00863124
0.0100298
-0.0816361
0.0787105
0.00292563
-0.00695265
0.0053845
-0.409337
0.410905
-0.00211387
-0.00207953
-0.552231
0.556425
0.00827968
-0.0142926
-0.665172
0.671185
0.0213459
-0.0278517
-0.777658
0.784163
0.0349223
-0.0412251
-0.902981
0.909284
0.0479787
-0.053516
-1.04396
1.0495
0.0592288
-0.0632242
-1.20142
1.20542
0.0667033
-0.0685108
-1.37513
1.37694
0.0686101
-0.0663446
-1.56543
1.56317
0.062179
-0.0562196
-1.48685
1.4809
0.0496042
-0.041531
-1.18767
1.1796
0.0339473
-0.0256851
-0.956157
0.947895
0.0179744
-0.00992522
-0.774508
0.766459
0.00269557
0.00433211
-0.627994
0.620966
-0.00983581
0.0144738
-0.498221
0.493583
-0.0171533
0.0179716
-0.360458
0.359639
-0.0161346
0.0121834
-0.211175
0.215126
-0.00838913
0.00421422
-0.0864657
0.0906406
-0.00137278
-0.0105516
0.0119244
-0.0798328
0.0773448
0.002488
-0.00754298
0.00733034
-0.416967
0.417179
-0.00480387
0.00156122
-0.563611
0.566854
0.00345334
-0.00884879
-0.67746
0.682856
0.0148064
-0.0205618
-0.790261
0.796016
0.0267158
-0.0322321
-0.915272
0.920788
0.0380959
-0.0431176
-1.05498
1.06
0.048073
-0.0519036
-1.20938
1.21321
0.0550529
-0.0567011
-1.37853
1.38018
0.0568243
-0.0548126
-1.56092
1.55891
0.0511312
-0.045694
-1.47453
1.46909
0.0398972
-0.0330317
-1.1718
1.16494
0.0265387
-0.0193713
-0.939723
0.932556
0.0129304
-0.00613136
-0.758443
0.751644
0.000275372
0.00545799
-0.613349
0.607615
-0.00975397
0.0131789
-0.48678
0.483355
-0.0151356
0.0154594
-0.355784
0.35546
-0.0134984
0.0100977
-0.214866
0.218266
-0.00685872
0.00338479
-0.0923422
0.0958162
-0.00113148
-0.0124022
0.0135337
-0.0783206
0.0762401
0.00208054
-0.00705552
0.00714294
-0.422093
0.422005
-0.00566472
0.00289875
-0.572559
0.575325
0.00176523
-0.00639845
-0.687973
0.692606
0.0115906
-0.0166475
-0.80122
0.806277
0.0221762
-0.0271738
-0.926084
0.931082
0.0326307
-0.037132
-1.06483
1.06934
0.041725
-0.0453212
-1.21686
1.22046
0.04828
-0.0498867
-1.3817
1.38331
0.0501137
-0.0487491
-1.55698
1.55562
0.045527
-0.0409237
-1.46349
1.45888
0.0358394
-0.0298433
-1.15815
1.15216
0.0244501
-0.018223
-0.925562
0.919335
0.0127411
-0.00715722
-0.745044
0.739461
0.00233123
0.00234086
-0.601653
0.596981
-0.00581957
0.00864711
-0.478117
0.47529
-0.0098514
0.00993547
-0.352388
0.352304
-0.008709
0.0062544
-0.217545
0.22
-0.00407147
0.00201262
-0.0964705
0.0985294
-0.000687574
-0.0137038
0.0143913
-0.0772549
0.0756573
0.00159762
-0.00593599
0.00620926
-0.425885
0.425611
-0.00486659
0.00270251
-0.580507
0.582671
0.00151858
-0.00572665
-0.697187
0.701396
0.0107002
-0.0151207
-0.811131
0.815551
0.0200526
-0.0245597
-0.936156
0.940664
0.0298262
-0.0340174
-1.07395
1.07814
0.038232
-0.0417777
-1.22397
1.22751
0.0450653
-0.0467312
-1.38504
1.38671
0.047299
-0.0462196
-1.55402
1.55294
0.0437702
-0.0395421
-1.45425
1.45002
0.0352273
-0.0300889
-1.1462
1.14107
0.0252526
-0.0200002
-0.913315
0.908063
0.0152145
-0.0102249
-0.733802
0.728812
0.00627994
-0.00214017
-0.591935
0.587795
-0.00103851
0.00338988
-0.470922
0.46857
-0.00463277
0.00510525
-0.349606
0.349133
-0.00454938
0.00324085
-0.218621
0.21993
-0.00207408
0.00106945
-0.09825
0.0992546
-0.000415933
-0.0142256
0.0146415
-0.0767391
0.0754927
0.00124639
-0.00472934
0.00503087
-0.428924
0.428623
-0.00369307
0.00160478
-0.587502
0.58959
0.00229674
-0.00609216
-0.705548
0.709343
0.0104169
-0.0147224
-0.820065
0.824371
0.0193415
-0.0240341
-0.945079
0.949772
0.0286628
-0.03275
-1.08249
1.08658
0.0371874
-0.0406057
-1.23102
1.23444
0.0435759
-0.0458001
-1.38838
1.3906
0.0467417
-0.0461511
-1.552
1.55141
0.0440887
-0.0406551
-1.44606
1.44263
0.0368625
-0.0322565
-1.13573
1.13112
0.0279592
-0.023178
-0.902741
0.89796
0.0188563
-0.0144885
-0.72389
0.719523
0.0106302
-0.00691286
-0.583303
0.579586
0.00405295
-0.0015323
-0.464722
0.462202
1.0674e-05
0.000645298
-0.34625
0.345594
-0.00089202
0.00079049
-0.21787
0.217971
-0.000623212
0.000415152
-0.0981617
0.0983697
-0.000238331
-0.0142545
0.0144928
-0.0767611
0.0757206
0.0010405
-0.00340591
0.00349405
-0.431752
0.431663
-0.00234664
0.000213119
-0.593937
0.596071
0.00343802
-0.00713801
-0.713373
0.717073
0.011315
-0.0152611
-0.828594
0.83254
0.0200338
-0.0240056
-0.953987
0.957959
0.0286551
-0.0326239
-1.09088
1.09485
0.0370252
-0.0407144
-1.23791
1.2416
0.044069
-0.0461992
-1.39266
1.39479
0.0476176
-0.0475531
-1.55082
1.55076
0.0462191
-0.0431606
-1.4391
1.43604
0.0398217
-0.0356035
-1.1266
1.12238
0.0316477
-0.0271022
-0.892951
0.888405
0.0231153
-0.0188642
-0.714867
0.710616
0.0151978
-0.011554
-0.575453
0.571809
0.00861136
-0.00617741
-0.458537
0.456103
0.00432658
-0.00313833
-0.342232
0.341043
0.00212712
-0.00125517
-0.215446
0.214574
0.000580096
-2.23451e-05
-0.0965339
0.0959761
-0.000126019
-0.0138443
0.0139703
-0.0770496
0.0763267
0.000722871
-0.0022387
0.00193309
-0.434782
0.435087
-0.00094374
-0.00141734
-0.59956
0.601921
0.00468872
-0.00825562
-0.72073
0.724297
0.0122787
-0.0163697
-0.836455
0.840546
0.0205803
-0.0247375
-0.962196
0.966354
0.0293899
-0.0332007
-1.09929
1.1031
0.0377469
-0.041455
-1.24515
1.24886
0.0449491
-0.0476777
-1.39738
1.40011
0.049668
-0.0499594
-1.55078
1.55107
0.0489214
-0.0465664
-1.43315
1.43079
0.0437131
-0.0397682
-1.11798
1.11404
0.035955
-0.0317873
-0.883735
0.879567
0.0275801
-0.0235363
-0.706043
0.701999
0.0198933
-0.0161329
-0.567933
0.564173
0.0132052
-0.0103827
-0.452229
0.449407
0.0082259
-0.00630367
-0.337485
0.335562
0.00476381
-0.00306864
-0.211551
0.209856
0.00160485
-0.000464457
-0.0937148
0.0925744
3.34981e-06
-0.0131408
0.0131375
-0.0777414
0.0771596
0.000581755
-0.00128999
0.0010484
-0.438039
0.438281
0.000484666
-0.0027401
-0.605294
0.607549
0.00613131
-0.00956522
-0.727604
0.731038
0.0134461
-0.0171666
-0.844398
0.848119
0.0215194
-0.0253959
-0.970572
0.974449
0.0300273
-0.0342908
-1.10739
1.11166
0.038528
-0.042602
-1.25266
1.25673
0.0465648
-0.0494468
-1.4028
1.40568
0.0518748
-0.0529968
-1.55161
1.55274
0.0524417
-0.0506949
-1.42831
1.42657
0.0479873
-0.0443658
-1.11004
1.10641
0.0408079
-0.036638
-0.874896
0.870726
0.0326289
-0.0285033
-0.697398
0.693272
0.0248025
-0.0208497
-0.560061
0.556108
0.0176179
-0.0145309
-0.445544
0.442457
0.01178
-0.00924223
-0.331603
0.329065
0.00702276
-0.00462987
-0.206229
0.203836
0.00263209
-0.000970024
-0.0899715
0.0883094
0.000167369
-0.0122446
0.0120773
-0.0786704
0.0782515
0.000418882
-0.000307861
-5.44422e-05
-0.441471
0.441833
0.00164626
-0.00411697
-0.610711
0.613182
0.00739396
-0.0106644
-0.734238
0.737508
0.0146275
-0.0182112
-0.851881
0.855465
0.0224291
-0.0264385
-0.978836
0.982845
0.030993
-0.0352421
-1.11582
1.12007
0.0397223
-0.0438544
-1.26077
1.2649
0.0480447
-0.0517075
-1.40889
1.41255
0.0546352
-0.0561027
-1.55384
1.55531
0.0562568
-0.0548314
-1.4247
1.42328
0.0526362
-0.0494457
-1.10267
1.09948
0.0458277
-0.0416989
-0.866167
0.862038
0.037694
-0.0333593
-0.68869
0.684356
0.0296283
-0.0254561
-0.552063
0.547891
0.0220289
-0.0184339
-0.438326
0.434731
0.0153383
-0.0121719
-0.324636
0.32147
0.00917666
-0.00610822
-0.199612
0.196544
0.00358248
-0.00143143
-0.0853302
0.0831792
0.000301684
-0.0111469
0.0108453