/*--------------------------------*- C++ -*----------------------------------*\
  =========                 |
  \\      /  F ield         | OpenFOAM: The Open Source CFD Toolbox
   \\    /   O peration     | Website:  https://openfoam.org
    \\  /    A nd           | Version:  9
     \\/     M anipulation  |
\*---------------------------------------------------------------------------*/
FoamFile
{
    format      ascii;
    class       volVectorField;
    location    "23";
    object      U;
}
// * * * * * * * * * * * * * * * * * * * * * * * * * * * * * * * * * * * * * //

dimensions      [0 1 -1 0 0 0 0];

internalField   nonuniform List<vector> 
8800
(
(0.980142 -0.0915204 0)
(1.00234 -0.0587281 0)
(0.999609 -0.0321239 0)
(1 -0.0165095 0)
(1.00005 -0.00881443 0)
(1.00002 -0.00505605 0)
(1.00002 -0.00296258 0)
(1.00001 -0.0016819 0)
(1.00001 -0.00081207 0)
(1.00005 -0.000128062 0)
(1 0.000561183 0)
(1 0.00131289 0)
(1.00001 0.00234185 0)
(1.00002 0.00394795 0)
(1.00004 0.0067009 0)
(1.00005 0.0120191 0)
(0.999882 0.0230815 0)
(0.999083 0.0431549 0)
(1.00721 0.0790313 0)
(0.775021 0.0478397 0)
(0.358996 -0.0147479 0)
(1.0465 -0.0724788 0)
(1.08849 -0.0660173 0)
(1.04947 -0.0509117 0)
(1.02552 -0.037696 0)
(1.01267 -0.0258975 0)
(1.00649 -0.0167079 0)
(1.00358 -0.0102307 0)
(1.00216 -0.0056434 0)
(1.0015 -0.00211185 0)
(1.00138 0.0010511 0)
(1.00174 0.00432086 0)
(1.0027 0.00821451 0)
(1.00473 0.0135695 0)
(1.00897 0.0212865 0)
(1.01798 0.031787 0)
(1.03591 0.0445741 0)
(1.06752 0.0580336 0)
(1.09477 0.0699772 0)
(0.845755 0.0554906 0)
(0.217817 -0.00137824 0)
(1.07571 -0.0506194 0)
(1.09945 -0.048896 0)
(1.06439 -0.0399549 0)
(1.03983 -0.0324592 0)
(1.02368 -0.0252318 0)
(1.01392 -0.0180839 0)
(1.00844 -0.011584 0)
(1.00562 -0.00593364 0)
(1.00449 -0.000723483 0)
(1.00481 0.00433633 0)
(1.00664 0.00959577 0)
(1.01057 0.015536 0)
(1.0179 0.0222695 0)
(1.03055 0.0293986 0)
(1.05062 0.0365463 0)
(1.08024 0.0443902 0)
(1.10589 0.0517716 0)
(0.9436 0.0409294 0)
(0.217417 0.00139434 0)
(0.176727 -0.000625599 0)
(1.01951 -0.0353858 0)
(1.10575 -0.0413219 0)
(1.07799 -0.036336 0)
(1.05236 -0.0303188 0)
(1.03505 -0.0244467 0)
(1.0232 -0.0186716 0)
(1.01543 -0.012752 0)
(1.01086 -0.00678206 0)
(1.00886 -0.000717557 0)
(1.00943 0.00528489 0)
(1.01254 0.0111353 0)
(1.01849 0.0169262 0)
(1.02811 0.0225754 0)
(1.04238 0.0281901 0)
(1.06332 0.034005 0)
(1.09419 0.0399014 0)
(1.09488 0.0414828 0)
(0.831027 0.0226378 0)
(0.176051 0.000638333 0)
(0.154914 -0.000458608 0)
(0.958508 -0.025539 0)
(1.10442 -0.0348815 0)
(1.08794 -0.0324047 0)
(1.06104 -0.0279064 0)
(1.04295 -0.0230061 0)
(1.03058 -0.017827 0)
(1.022 -0.0124616 0)
(1.01647 -0.00677093 0)
(1.01388 -0.000511134 0)
(1.01457 0.0057988 0)
(1.01843 0.0115644 0)
(1.02527 0.0168308 0)
(1.03547 0.0218377 0)
(1.05027 0.0266601 0)
(1.07227 0.0311366 0)
(1.10146 0.0351064 0)
(1.07059 0.0334783 0)
(0.744192 0.0142396 0)
(0.153908 0.000473121 0)
(0.140397 -0.000329324 0)
(0.901985 -0.0190664 0)
(1.09703 -0.0298329 0)
(1.09618 -0.0289206 0)
(1.06868 -0.0251294 0)
(1.04964 -0.0211069 0)
(1.03667 -0.016596 0)
(1.02772 -0.0115976 0)
(1.02184 -0.00614339 0)
(1.01892 -0.000111099 0)
(1.01965 0.00595192 0)
(1.02375 0.0114361 0)
(1.03084 0.0163464 0)
(1.04142 0.0207777 0)
(1.05697 0.0247308 0)
(1.08004 0.0283196 0)
(1.10418 0.0311551 0)
(1.03969 0.0273904 0)
(0.678652 0.00999301 0)
(0.138987 0.000346575 0)
(0.129918 -0.000244448 0)
(0.852996 -0.0144546 0)
(1.08478 -0.0253719 0)
(1.10158 -0.0257458 0)
(1.07524 -0.0225927 0)
(1.05572 -0.0190915 0)
(1.04224 -0.0150888 0)
(1.03285 -0.0105159 0)
(1.02664 -0.00539029 0)
(1.02352 0.000347846 0)
(1.02419 0.00612224 0)
(1.02839 0.0112332 0)
(1.03575 0.0156791 0)
(1.04676 0.0195426 0)
(1.06274 0.0228969 0)
(1.08618 0.0258955 0)
(1.10366 0.0277433 0)
(1.00634 0.0224145 0)
(0.628536 0.00743739 0)
(0.128018 0.000265755 0)
(0.122144 -0.000183599 0)
(0.812148 -0.0110312 0)
(1.07006 -0.0213015 0)
(1.10494 -0.022448 0)
(1.08108 -0.0196382 0)
(1.06115 -0.0164436 0)
(1.04739 -0.0129835 0)
(1.03769 -0.00900675 0)
(1.03121 -0.00438725 0)
(1.02793 0.000947919 0)
(1.02848 0.00630827 0)
(1.03272 0.0108795 0)
(1.04023 0.0146648 0)
(1.0514 0.0178425 0)
(1.06764 0.0206511 0)
(1.0915 0.0233697 0)
(1.1007 0.0245234 0)
(0.973614 0.0183235 0)
(0.589621 0.00569716 0)
(0.11965 0.000209825 0)
(0.116364 -0.000135141 0)
(0.778866 -0.0082632 0)
(1.05426 -0.0174702 0)
(1.10724 -0.0193607 0)
(1.08653 -0.0170646 0)
(1.06595 -0.0141929 0)
(1.05187 -0.0110574 0)
(1.04207 -0.0074217 0)
(1.03541 -0.00318773 0)
(1.03187 0.00167702 0)
(1.03231 0.0064797 0)
(1.03654 0.0105262 0)
(1.044 0.0138078 0)
(1.05519 0.0164982 0)
(1.07188 0.0188758 0)
(1.09577 0.0211603 0)
(1.09545 0.0215068 0)
(0.942966 0.0147968 0)
(0.559182 0.00436933 0)
(0.113147 0.000167674 0)
(0.112207 -9.63987e-05 0)
(0.752683 -0.00599277 0)
(1.03847 -0.0137793 0)
(1.1081 -0.0161887 0)
(1.09114 -0.014571 0)
(1.07038 -0.0120704 0)
(1.05611 -0.00911735 0)
(1.04619 -0.00568065 0)
(1.03944 -0.00179385 0)
(1.03573 0.00255992 0)
(1.03597 0.00678784 0)
(1.03998 0.0102558 0)
(1.04729 0.0131027 0)
(1.0585 0.015503 0)
(1.07533 0.0174734 0)
(1.09835 0.0190524 0)
(1.08801 0.0185032 0)
(0.915463 0.0117675 0)
(0.535544 0.00334686 0)
(0.108101 0.000137587 0)
(0.109377 -6.37956e-05 0)
(0.733085 -0.00394057 0)
(1.02413 -0.0100843 0)
(1.10785 -0.012499 0)
(1.09497 -0.0111842 0)
(1.07428 -0.00895504 0)
(1.05972 -0.00650888 0)
(1.04945 -0.00363432 0)
(1.04238 -0.000245188 0)
(1.03844 0.00363034 0)
(1.03839 0.00732745 0)
(1.04226 0.0101204 0)
(1.04961 0.0122005 0)
(1.06092 0.013747 0)
(1.07782 0.0151314 0)
(1.09925 0.0162945 0)
(1.07935 0.0152616 0)
(0.891912 0.00901385 0)
(0.517555 0.00245678 0)
(0.104179 0.000115226 0)
(0.107882 -1.97251e-05 0)
(0.719821 -0.00203847 0)
(1.01217 -0.00655424 0)
(1.10737 -0.00889374 0)
(1.0985 -0.00795769 0)
(1.07771 -0.00621127 0)
(1.06312 -0.00422528 0)
(1.05298 -0.00164364 0)
(1.04594 0.00145931 0)
(1.04181 0.00491703 0)
(1.04138 0.00807381 0)
(1.04475 0.0103469 0)
(1.0516 0.0118403 0)
(1.0626 0.0127777 0)
(1.07965 0.0134369 0)
(1.0994 0.0139246 0)
(1.07042 0.0123038 0)
(0.872466 0.00653529 0)
(0.504709 0.00167647 0)
(0.101333 8.53676e-05 0)
(0.107617 1.60907e-05 0)
(0.712113 -0.000588197 0)
(1.00228 -0.00353481 0)
(1.10577 -0.00591237 0)
(1.10082 -0.0056293 0)
(1.08032 -0.00420992 0)
(1.06572 -0.00234924 0)
(1.05553 0.000170768 0)
(1.04835 0.00317688 0)
(1.04389 0.00646032 0)
(1.04306 0.00928386 0)
(1.04603 0.0111519 0)
(1.05252 0.0122814 0)
(1.06315 0.0127924 0)
(1.07986 0.0129344 0)
(1.09765 0.0125331 0)
(1.06051 0.00997954 0)
(0.85672 0.00473971 0)
(0.495825 0.00119269 0)
(0.0993846 5.96102e-05 0)
(0.108208 4.95964e-05 0)
(0.708775 0.000274004 0)
(0.995195 -0.0012508 0)
(1.10342 -0.00305551 0)
(1.10237 -0.00296135 0)
(1.0829 -0.00180865 0)
(1.06866 5.37486e-05 0)
(1.05861 0.00257741 0)
(1.0513 0.00543595 0)
(1.04641 0.00839297 0)
(1.04502 0.0107791 0)
(1.04736 0.0120717 0)
(1.05316 0.0125033 0)
(1.0632 0.0124791 0)
(1.07934 0.0122075 0)
(1.0944 0.0113443 0)
(1.05042 0.00842851 0)
(0.844283 0.00397288 0)
(0.489008 0.00107497 0)
(0.0978956 4.97253e-05 0)
(0.109286 6.1747e-05 0)
(0.708104 0.000747054 0)
(0.991408 0.000143007 0)
(1.10203 -0.000664477 0)
(1.10382 -0.00017465 0)
(1.08546 0.00118929 0)
(1.07145 0.00310026 0)
(1.06128 0.00553724 0)
(1.05366 0.00814173 0)
(1.04833 0.0107385 0)
(1.04621 0.0126133 0)
(1.04783 0.0132826 0)
(1.0531 0.0132898 0)
(1.0626 0.0128226 0)
(1.07803 0.0120816 0)
(1.09063 0.0108147 0)
(1.04129 0.00804971 0)
(0.833667 0.0041104 0)
(0.482394 0.00120467 0)
(0.0963753 5.74544e-05 0)
(0.110681 7.30429e-05 0)
(0.708706 0.00110439 0)
(0.989913 0.000929899 0)
(1.10249 0.000814786 0)
(1.10634 0.00208132 0)
(1.08839 0.00383844 0)
(1.07418 0.00601188 0)
(1.06379 0.00848142 0)
(1.05579 0.0111098 0)
(1.04988 0.0135956 0)
(1.04694 0.0151265 0)
(1.04779 0.0153512 0)
(1.05249 0.0147778 0)
(1.06136 0.0139066 0)
(1.07608 0.012949 0)
(1.08688 0.0116114 0)
(1.03287 0.00888824 0)
(0.822862 0.00469024 0)
(0.474986 0.00142424 0)
(0.0945486 7.62032e-05 0)
(0.11244 8.64223e-05 0)
(0.710445 0.00160993 0)
(0.98911 0.00173573 0)
(1.10376 0.0015996 0)
(1.10993 0.00281233 0)
(1.09192 0.00485876 0)
(1.07743 0.00756741 0)
(1.06672 0.0106672 0)
(1.05832 0.0139824 0)
(1.05161 0.0170665 0)
(1.04763 0.0189271 0)
(1.04741 0.0192173 0)
(1.05116 0.0184367 0)
(1.0598 0.0170692 0)
(1.07408 0.015685 0)
(1.08283 0.0141751 0)
(1.02303 0.0104047 0)
(0.810522 0.00528122 0)
(0.466593 0.00164948 0)
(0.0923146 9.77346e-05 0)
(0.114751 0.000108406 0)
(0.714095 0.00239658 0)
(0.988421 0.0031468 0)
(1.10433 0.0025301 0)
(1.11304 0.00322799 0)
(1.09604 0.00517645 0)
(1.08151 0.00847386 0)
(1.07063 0.0126134 0)
(1.06166 0.0171389 0)
(1.05389 0.0213548 0)
(1.04864 0.02406 0)
(1.0472 0.0248905 0)
(1.04981 0.0244296 0)
(1.05721 0.0230255 0)
(1.07097 0.0209552 0)
(1.07614 0.0175992 0)
(1.00974 0.0117818 0)
(0.796747 0.00575437 0)
(0.45735 0.00188192 0)
(0.0896606 0.000118799 0)
(0.117872 0.000146275 0)
(0.720699 0.00349058 0)
(0.988995 0.00539717 0)
(1.10323 0.00472142 0)
(1.1154 0.00483642 0)
(1.10039 0.00656931 0)
(1.08674 0.0105534 0)
(1.07588 0.0158433 0)
(1.06612 0.0215276 0)
(1.05701 0.0267652 0)
(1.05026 0.0301122 0)
(1.0474 0.031176 0)
(1.04848 0.030618 0)
(1.0541 0.0288137 0)
(1.06521 0.0255597 0)
(1.06476 0.0200732 0)
(0.99338 0.0126687 0)
(0.782271 0.00630161 0)
(0.447171 0.0021724 0)
(0.0865534 0.000140938 0)
(0.122106 0.000203717 0)
(0.731202 0.00489703 0)
(0.992599 0.00824074 0)
(1.1021 0.00885977 0)
(1.11711 0.0086757 0)
(1.10516 0.0107969 0)
(1.09312 0.0155877 0)
(1.08212 0.0216789 0)
(1.07127 0.0280353 0)
(1.06048 0.0336329 0)
(1.05182 0.0367936 0)
(1.04719 0.0372496 0)
(1.04642 0.0358062 0)
(1.04976 0.0330096 0)
(1.05621 0.0282999 0)
(1.05008 0.0213881 0)
(0.976146 0.0135101 0)
(0.767391 0.00712746 0)
(0.435646 0.00255007 0)
(0.0829196 0.000164274 0)
(0.127826 0.00027924 0)
(0.746237 0.00661052 0)
(1.00069 0.0117148 0)
(1.10401 0.0141593 0)
(1.11957 0.0153407 0)
(1.11107 0.0186516 0)
(1.10022 0.0240458 0)
(1.08883 0.0305416 0)
(1.07659 0.0370501 0)
(1.06368 0.0422596 0)
(1.05266 0.0444048 0)
(1.04585 0.0434665 0)
(1.04288 0.0404258 0)
(1.04327 0.03603 0)
(1.04517 0.030077 0)
(1.03466 0.0227248 0)
(0.959395 0.0150535 0)
(0.751431 0.00842187 0)
(0.422096 0.00307538 0)
(0.0786255 0.000195085 0)
(0.135471 0.000386611 0)
(0.766421 0.00887868 0)
(1.01431 0.0159801 0)
(1.1109 0.0205602 0)
(1.12527 0.0238947 0)
(1.11841 0.0289009 0)
(1.10802 0.0352678 0)
(1.09576 0.0421987 0)
(1.08162 0.0485906 0)
(1.06605 0.0529109 0)
(1.05219 0.0533968 0)
(1.04274 0.0504675 0)
(1.03727 0.0455715 0)
(1.03471 0.0394681 0)
(1.03312 0.0326273 0)
(1.01959 0.0251986 0)
(0.942717 0.0175959 0)
(0.733268 0.010226 0)
(0.405801 0.00375783 0)
(0.0734949 0.000232473 0)
(0.145793 0.000553809 0)
(0.792942 0.0121199 0)
(1.03405 0.0215245 0)
(1.12311 0.0282682 0)
(1.13522 0.0340714 0)
(1.12805 0.0411682 0)
(1.11687 0.0489705 0)
(1.10284 0.0565701 0)
(1.08609 0.0627919 0)
(1.06723 0.0659516 0)
(1.05001 0.0644399 0)
(1.03766 0.059305 0)
(1.02957 0.0524154 0)
(1.0244 0.0447677 0)
(1.02027 0.037043 0)
(1.00444 0.0292923 0)
(0.924813 0.0211798 0)
(0.712006 0.0125151 0)
(0.386221 0.00452555 0)
(0.0673792 0.000268725 0)
(0.160025 0.000819003 0)
(0.827633 0.0169263 0)
(1.06081 0.0291751 0)
(1.141 0.038269 0)
(1.14975 0.0467919 0)
(1.14059 0.0563047 0)
(1.12711 0.0658121 0)
(1.11012 0.0741806 0)
(1.08984 0.0801026 0)
(1.06699 0.0818235 0)
(1.04596 0.0780672 0)
(1.03048 0.0706128 0)
(1.01974 0.0616615 0)
(1.01229 0.0524411 0)
(1.00616 0.0436526 0)
(0.988124 0.0351452 0)
(0.904214 0.0258888 0)
(0.686324 0.0153576 0)
(0.362594 0.00547976 0)
(0.060176 0.000312874 0)
(0.180375 0.00128974 0)
(0.873669 0.0245713 0)
(1.09638 0.0406365 0)
(1.16517 0.0523242 0)
(1.16913 0.0640964 0)
(1.15621 0.0761178 0)
(1.13876 0.0871917 0)
(1.11744 0.0959917 0)
(1.09262 0.101151 0)
(1.0651 0.100955 0)
(1.03989 0.0946028 0)
(1.02112 0.0846447 0)
(1.00776 0.0735521 0)
(0.998173 0.0626119 0)
(0.99019 0.0524879 0)
(0.969562 0.0427919 0)
(0.879554 0.0318045 0)
(0.655126 0.018856 0)
(0.334348 0.006599 0)
(0.0517968 0.000353411 0)
(0.210238 0.00236475 0)
(0.936871 0.0380953 0)
(1.14274 0.0598489 0)
(1.1964 0.0739712 0)
(1.19311 0.0893356 0)
(1.17429 0.103228 0)
(1.1511 0.114903 0)
(1.12414 0.123127 0)
(1.0939 0.126591 0)
(1.06122 0.123696 0)
(1.03161 0.114224 0)
(1.00948 0.101498 0)
(0.993521 0.0881446 0)
(0.981831 0.0753525 0)
(0.971855 0.0636932 0)
(0.947743 0.0525414 0)
(0.849472 0.0392266 0)
(0.617356 0.0231441 0)
(0.301659 0.00796657 0)
(0.0425358 0.000381239 0)
(0.251353 0.0088547 -1.27182e-20)
(1.02078 0.0657233 -9.86747e-21)
(1.1977 0.0925269 2.74839e-21)
(1.23302 0.109553 0)
(1.21907 0.12642 2.97526e-36)
(1.1927 0.140169 1.22662e-22)
(1.16261 0.150693 -1.22825e-21)
(1.12918 0.156999 0)
(1.0929 0.157816 4.73986e-35)
(1.05456 0.151611 -3.62031e-21)
(1.02012 0.138728 0)
(0.994206 0.123163 -5.2159e-21)
(0.975241 0.10757 -1.59699e-20)
(0.961007 0.0930409 -7.7319e-21)
(0.948441 0.0801081 -2.43524e-21)
(0.920137 0.0677777 -1.47393e-21)
(0.81065 0.0515146 0)
(0.569476 0.030713 1.05371e-21)
(0.264063 0.0116272 1.24772e-21)
(0.0341754 0.00116456 2.21352e-20)
(0.278525 0.0249149 -2.36933e-20)
(1.08966 0.109731 5.07245e-22)
(1.24398 0.140431 -1.3597e-21)
(1.26592 0.158722 0)
(1.24236 0.173964 2.11635e-21)
(1.20866 0.186019 1.13735e-21)
(1.17168 0.194656 -7.72577e-22)
(1.13163 0.19878 -6.08694e-21)
(1.08882 0.197051 0)
(1.04394 0.187838 1.53815e-20)
(1.00352 0.171949 1.70585e-20)
(0.972567 0.153908 5.49786e-21)
(0.949364 0.136358 2.17332e-20)
(0.93141 0.120136 3.2008e-20)
(0.914692 0.105643 0)
(0.879626 0.0916151 4.753e-20)
(0.762693 0.0722613 6.91973e-20)
(0.520707 0.0457639 7.71619e-20)
(0.234298 0.0197268 -8.89963e-20)
(0.0284561 0.00245382 -1.64537e-21)
(0.276739 0.0405018 0)
(1.13109 0.166785 -7.32855e-21)
(1.27704 0.200327 0)
(1.29128 0.217656 1.17705e-20)
(1.26052 0.229368 0)
(1.22048 0.23807 5.87064e-21)
(1.17727 0.243476 7.97766e-22)
(1.13109 0.244411 -8.94105e-21)
(1.08223 0.239442 -1.56526e-21)
(1.03122 0.226914 7.4636e-21)
(0.985252 0.208081 3.99233e-20)
(0.94978 0.187899 -3.01228e-22)
(0.922774 0.168907 -1.63616e-20)
(0.901519 0.151801 -3.17873e-20)
(0.881836 0.136589 3.8529e-20)
(0.84486 0.121647 -6.92642e-20)
(0.73356 0.0989297 -9.44709e-21)
(0.507234 0.0666921 0)
(0.240825 0.0316549 6.57615e-23)
(0.0326184 0.00460159 0)
(0.268775 0.0541265 -1.82427e-19)
(1.1516 0.226722 7.54416e-20)
(1.29802 0.265194 4.0502e-20)
(1.3079 0.281244 -7.73496e-21)
(1.27218 0.28912 1.17995e-20)
(1.22736 0.293864 -1.41497e-20)
(1.17908 0.295428 8.19954e-22)
(1.12766 0.292643 0)
(1.0735 0.284017 -2.91971e-20)
(1.01707 0.267917 0)
(0.966175 0.246092 -2.04137e-20)
(0.926834 0.223937 -2.87766e-20)
(0.896754 0.203768 -1.84054e-20)
(0.873006 0.185978 -2.37571e-20)
(0.851487 0.170317 0)
(0.815127 0.154545 0)
(0.714756 0.129848 -6.37938e-20)
(0.509245 0.092507 1.27248e-20)
(0.255848 0.0470112 -7.39782e-21)
(0.0390672 0.00761978 -8.64153e-21)
(0.26052 0.0663075 1.35336e-19)
(1.15891 0.286287 0)
(1.30992 0.331481 -1.13776e-19)
(1.3169 0.346114 -2.91524e-20)
(1.27765 0.350325 -2.20597e-20)
(1.22927 0.351102 0)
(1.17705 0.348773 -2.73882e-21)
(1.12137 0.342138 7.96686e-21)
(1.06269 0.329727 1.27704e-20)
(1.00163 0.309917 3.80625e-20)
(0.946609 0.285031 0)
(0.904155 0.260843 -6.29147e-20)
(0.871744 0.239549 -4.03229e-20)
(0.846197 0.221207 -2.43371e-20)
(0.82356 0.205351 1.59691e-19)
(0.788739 0.189148 1.96244e-20)
(0.698747 0.163215 9.35407e-20)
(0.511928 0.119848 -4.50118e-19)
(0.268092 0.0637459 2.67782e-19)
(0.0443986 0.0109777 -3.22768e-19)
(0.253141 0.0773186 1.43165e-19)
(1.15797 0.343602 -2.66186e-20)
(1.31466 0.396755 2.00608e-20)
(1.31977 0.410393 5.44217e-20)
(1.278 0.411195 3.32711e-20)
(1.22691 0.408261 1.68619e-21)
(1.17157 0.402201 2.36959e-21)
(1.11242 0.391809 5.88231e-21)
(1.04997 0.37564 -2.81893e-20)
(0.984961 0.352097 0)
(0.926512 0.324053 -2.7001e-20)
(0.881613 0.297679 -1.5384e-21)
(0.847568 0.275078 -4.52418e-20)
(0.820959 0.256097 0)
(0.797937 0.23997 -3.49261e-20)
(0.765001 0.22353 -8.50714e-20)
(0.682834 0.196404 2.348e-19)
(0.509815 0.146997 -2.33195e-19)
(0.272882 0.0796773 3.31042e-19)
(0.0472285 0.014061 -3.44792e-19)
(0.247196 0.0875576 -4.17038e-22)
(1.15206 0.39805 3.26538e-20)
(1.31416 0.459928 9.59873e-20)
(1.31796 0.472965 -3.33932e-20)
(1.27431 0.470717 1.90144e-20)
(1.22111 0.46438 0)
(1.16327 0.454829 8.52169e-21)
(1.10124 0.440881 -4.46537e-21)
(1.0356 0.421078 -1.28711e-20)
(0.967171 0.393835 0)
(0.905779 0.362521 -2.64416e-20)
(0.858929 0.333767 -3.72202e-20)
(0.823758 0.309554 4.95957e-20)
(0.7966 0.289614 -3.17853e-20)
(0.773671 0.272849 -1.54232e-19)
(0.74257 0.255769 9.4871e-20)
(0.666577 0.226818 2.98332e-20)
(0.502737 0.171038 0)
(0.271595 0.0930497 -3.22005e-19)
(0.0476962 0.0164728 -1.185e-20)
(0.242611 0.0973361 2.3534e-20)
(1.14326 0.449501 -3.76036e-20)
(1.30979 0.520443 -5.25359e-20)
(1.31264 0.533175 -1.02761e-19)
(1.26755 0.528269 9.24504e-20)
(1.21268 0.518881 -4.89693e-20)
(1.15279 0.506125 -1.78701e-20)
(1.08832 0.488854 -6.4221e-21)
(1.01988 0.465603 1.29299e-20)
(0.948467 0.434724 -9.35612e-20)
(0.884448 0.400033 -3.25826e-20)
(0.835863 0.36866 0)
(0.799873 0.342523 5.43175e-20)
(0.77252 0.321224 6.72353e-20)
(0.749895 0.303449 8.28595e-20)
(0.720383 0.285331 -1.03593e-19)
(0.648778 0.254162 -3.11733e-20)
(0.491208 0.191783 3.68493e-20)
(0.265822 0.103827 0)
(0.0467676 0.0182773 -2.58354e-20)
(0.239191 0.106787 -2.73558e-19)
(1.13301 0.498086 1.72315e-19)
(1.30271 0.578049 5.78506e-20)
(1.30473 0.590685 -7.85068e-20)
(1.25847 0.583475 5.53779e-20)
(1.20225 0.571373 -3.93021e-21)
(1.14066 0.555729 1.73788e-20)
(1.0741 0.535419 -2.89522e-21)
(1.0032 0.508935 -2.32996e-20)
(0.929019 0.474557 1.9164e-22)
(0.862632 0.436437 -9.73337e-20)
(0.812588 0.40219 9.50555e-20)
(0.775855 0.373775 -6.09352e-20)
(0.748401 0.350707 7.58643e-20)
(0.726166 0.331629 0)
(0.697948 0.312115 -5.62729e-20)
(0.629328 0.278001 -1.13373e-21)
(0.476053 0.209199 -1.61303e-19)
(0.256259 0.111917 -2.37853e-20)
(0.0445722 0.0193685 0)
(0.236751 0.116025 0)
(1.12213 0.544036 1.87269e-19)
(1.29369 0.63265 1.3499e-19)
(1.29494 0.645383 8.86534e-20)
(1.24772 0.636148 5.3253e-20)
(1.1904 0.621645 0)
(1.12739 0.603422 1.69871e-20)
(1.05901 0.580365 -1.19747e-21)
(0.985874 0.550918 4.95897e-20)
(0.909132 0.513212 -1.14888e-20)
(0.84046 0.471649 -7.1403e-20)
(0.788979 0.434363 4.75993e-20)
(0.751517 0.403415 -1.97156e-21)
(0.723943 0.378253 7.99029e-20)
(0.702116 0.357464 5.22686e-20)
(0.674894 0.336123 -1.22526e-19)
(0.608132 0.298532 1.48053e-19)
(0.457889 0.223131 4.41317e-20)
(0.243794 0.11753 1.82196e-19)
(0.0414834 0.0197696 -4.87914e-19)
(0.235203 0.125157 -7.0317e-20)
(1.11119 0.587532 1.08111e-19)
(1.28345 0.684308 -8.41972e-20)
(1.28383 0.697235 -1.02983e-19)
(1.23581 0.686194 0)
(1.17758 0.669575 4.28931e-20)
(1.11336 0.649074 -4.87247e-20)
(1.04338 0.62357 1.36516e-21)
(0.968208 0.591447 0)
(0.888986 0.550631 -1.78402e-19)
(0.817915 0.50569 1.94844e-19)
(0.764851 0.46519 0)
(0.726686 0.431442 7.21568e-20)
(0.698974 0.403968 -1.97322e-21)
(0.677465 0.381166 -1.65345e-19)
(0.650878 0.357604 6.50495e-20)
(0.585098 0.315968 0)
(0.437237 0.233707 2.39271e-19)
(0.229119 0.120754 0)
(0.0377966 0.0196156 -2.32392e-19)
(0.234324 0.134231 7.84709e-20)
(1.10048 0.628774 1.23603e-19)
(1.27241 0.733038 -8.82777e-20)
(1.27184 0.746241 0)
(1.22315 0.733601 7.34258e-20)
(1.16418 0.715125 0)
(1.09892 0.692616 6.44297e-20)
(1.0275 0.664959 6.69501e-21)
(0.95042 0.630464 5.18621e-21)
(0.868719 0.586818 -8.81859e-20)
(0.795177 0.538612 1.89245e-20)
(0.740351 0.494842 0)
(0.701275 0.458053 -1.53471e-19)
(0.673347 0.427918 2.03552e-21)
(0.652048 0.402819 0)
(0.625755 0.376646 2.40732e-21)
(0.560133 0.330368 2.17885e-19)
(0.414095 0.240885 -2.09121e-19)
(0.212527 0.121566 6.1741e-20)
(0.0336157 0.0188425 0)
(0.23379 0.143104 0)
(1.09019 0.667798 1.38347e-19)
(1.26087 0.779015 1.03576e-19)
(1.25932 0.792462 -2.23161e-21)
(1.21008 0.778399 4.60667e-20)
(1.15048 0.758294 1.01042e-19)
(1.08432 0.734032 -2.06249e-20)
(1.01162 0.704505 2.03774e-21)
(0.932732 0.667944 3.06671e-20)
(0.84859 0.621796 -1.37693e-19)
(0.772419 0.57054 -3.19431e-21)
(0.715571 0.523464 -6.28133e-20)
(0.675264 0.48346 2.51504e-19)
(0.646938 0.450399 -2.41912e-21)
(0.62575 0.422665 -1.30213e-19)
(0.59943 0.39342 -2.37964e-19)
(0.533266 0.341824 0)
(0.38867 0.244832 0)
(0.194223 0.119894 6.75472e-20)
(0.0291298 0.0174833 -3.95506e-20)
(0.233825 0.151908 9.77153e-20)
(1.08045 0.704581 -3.03317e-19)
(1.24905 0.82233 -1.10989e-19)
(1.24656 0.835972 0)
(1.19685 0.820644 -1.53486e-21)
(1.13673 0.799111 1.21509e-19)
(1.06981 0.773331 -6.94884e-20)
(0.995956 0.742207 -2.87223e-20)
(0.915379 0.703898 3.19331e-20)
(0.82881 0.655608 -1.06231e-19)
(0.749793 0.601573 -1.65089e-19)
(0.690556 0.551281 1.67511e-19)
(0.64873 0.507868 0)
(0.619736 0.471556 -5.85605e-20)
(0.598509 0.440846 -1.42876e-19)
(0.571822 0.407992 -1.72292e-19)
(0.504433 0.350267 -2.08725e-19)
(0.361054 0.245392 6.22875e-20)
(0.17431 0.115589 -3.65449e-20)
(0.024309 0.0155297 3.78561e-22)
(0.233864 0.160547 0)
(1.07135 0.739406 0)
(1.23719 0.863054 2.53747e-21)
(1.23374 0.876853 0)
(1.18364 0.860416 -1.73125e-19)
(1.12312 0.837633 -1.07441e-19)
(1.05556 0.810544 0)
(0.980689 0.778079 -7.30323e-21)
(0.898531 0.73833 4.07188e-20)
(0.809527 0.688273 -2.4421e-19)
(0.727479 0.631824 0)
(0.66546 0.578472 -1.07362e-19)
(0.62164 0.531514 -2.96725e-21)
(0.591663 0.491628 -2.44348e-21)
(0.570219 0.457509 1.52425e-19)
(0.542857 0.420407 -4.24567e-22)
(0.473619 0.355656 -4.52947e-19)
(0.331113 0.242394 1.35435e-19)
(0.152923 0.10869 4.01533e-20)
(0.0192775 0.0130793 0)
(0.233912 0.168931 -3.59712e-19)
(1.06264 0.772489 -1.86392e-19)
(1.22539 0.901309 -2.78296e-19)
(1.22103 0.915222 3.87382e-19)
(1.17063 0.897785 -3.2467e-19)
(1.10979 0.873919 0)
(1.04171 0.845714 -5.92074e-20)
(0.965945 0.812142 1.3536e-20)
(0.88231 0.771252 3.7567e-21)
(0.790918 0.719819 1.92886e-20)
(0.705664 0.661381 2.07262e-19)
(0.640459 0.605235 -3.67432e-20)
(0.594091 0.554706 -1.55217e-19)
(0.562625 0.51089 -6.94869e-20)
(0.540717 0.472764 8.47697e-20)
(0.512424 0.430526 -3.23694e-22)
(0.440947 0.357712 1.23931e-19)
(0.299018 0.235606 -2.93519e-19)
(0.130625 0.0993587 3.48806e-19)
(0.0142819 0.0102759 5.06047e-20)
(0.233842 0.177004 1.3217e-19)
(1.05433 0.803869 -1.02085e-19)
(1.21378 0.937211 6.01418e-21)
(1.20853 0.951198 2.18959e-19)
(1.15791 0.932857 7.59384e-20)
(1.09684 0.908038 2.14441e-19)
(1.02836 0.878887 -2.63239e-20)
(0.95182 0.844413 6.50777e-20)
(0.866838 0.802664 -2.33381e-20)
(0.773125 0.750249 -1.33775e-19)
(0.684533 0.6903 0)
(0.615733 0.631731 -1.6534e-19)
(0.566205 0.577745 2.25328e-19)
(0.532548 0.529688 0)
(0.509713 0.486714 -1.81408e-19)
(0.480264 0.438038 1.12114e-19)
(0.406463 0.355868 -1.33837e-19)
(0.265764 0.224898 -1.60189e-19)
(0.108416 0.0880851 -2.83351e-19)
(0.00957499 0.00730249 -2.21027e-19)
(0.233976 0.184839 -1.45399e-19)
(1.04624 0.833539 1.0914e-19)
(1.20242 0.970843 2.59764e-19)
(1.19634 0.98487 3.01077e-19)
(1.14557 0.96572 -1.58895e-19)
(1.08435 0.940073 1.47955e-19)
(1.01557 0.910114 -8.17869e-20)
(0.938389 0.874938 8.08659e-20)
(0.852193 0.83259 -7.87514e-21)
(0.756264 0.779569 1.28355e-19)
(0.66426 0.718618 4.41279e-19)
(0.591517 0.658091 0)
(0.538145 0.600953 0)
(0.501339 0.548491 -8.03812e-20)
(0.476718 0.499596 0)
(0.445777 0.442378 2.43818e-19)
(0.370145 0.348985 2.9178e-19)
(0.232521 0.209693 0)
(0.0876821 0.0752958 0)
(0.0054997 0.00446786 2.39949e-19)
(0.233808 0.192196 1.60414e-19)
(1.03843 0.861508 1.30834e-19)
(1.19135 1.00233 1.86714e-19)
(1.18451 1.01636 -2.68855e-19)
(1.13367 0.996476 -1.77177e-19)
(1.07238 0.9701 -1.96274e-19)
(1.0034 0.93946 1.21215e-19)
(0.925704 0.903747 3.11339e-22)
(0.838437 0.861032 -4.83506e-21)
(0.740421 0.807763 -5.85356e-21)
(0.645017 0.746335 2.23825e-19)
(0.568044 0.684393 0)
(0.510219 0.624604 2.27753e-19)
(0.469043 0.567885 1.69707e-19)
(0.441061 0.511968 4.31912e-19)
(0.407668 0.443056 1.31617e-19)
(0.331426 0.334879 -1.6031e-19)
(0.201625 0.187805 -9.39749e-20)
(0.0726025 0.0610207 0)
(0.00339295 0.00238811 2.60112e-19)
(0.233842 0.199476 -3.53034e-19)
(1.03085 0.887883 0)
(1.18059 1.03174 2.08689e-19)
(1.17307 1.04576 -2.20286e-19)
(1.12224 1.02522 2.00604e-19)
(1.06095 0.998204 2.86761e-19)
(0.991888 0.966981 -2.81034e-19)
(0.913787 0.930878 2.70932e-21)
(0.825594 0.887998 0)
(0.725664 0.834798 -1.20755e-19)
(0.626951 0.773415 -4.65221e-19)
(0.545566 0.710675 2.26349e-20)
(0.482804 0.648862 3.10138e-19)
(0.435918 0.588535 0)
(0.402085 0.524902 2.91973e-19)
(0.363686 0.440539 0)
(0.286975 0.310595 0)
(0.174131 0.150651 -1.04177e-19)
(0.0789461 0.0345518 0)
(0.0254414 0.0105539 7.0155e-20)
(0.233551 0.206124 -3.85935e-19)
(1.02348 0.912975 0)
(1.17014 1.05928 3.37906e-19)
(1.16199 1.0733 0)
(1.11126 1.05219 -1.08886e-19)
(1.05 1.02466 0)
(0.980956 0.992982 -2.105e-20)
(0.902541 0.956662 -1.40766e-20)
(0.813555 0.913845 -8.32405e-23)
(0.711848 0.861053 -1.19143e-19)
(0.609935 0.800274 1.22459e-20)
(0.523974 0.737484 1.87107e-19)
(0.455757 0.674287 3.00539e-19)
(0.401694 0.611485 4.28638e-20)
(0.358527 0.540405 2.29036e-19)
(0.310133 0.437658 0)
(0.225151 0.277367 3.49077e-19)
(0.121989 0.0865615 -2.05599e-19)
(0.0506027 0.0514148 2.36484e-19)
(-0.0668246 0.406541 -2.7664e-19)
(0.233243 0.212508 3.14681e-19)
(1.01609 0.936661 4.97648e-19)
(1.1599 1.08526 0)
(1.15115 1.09938 4.96586e-21)
(1.10055 1.07796 2.9587e-19)
(1.0393 1.05013 -5.54996e-19)
(0.970326 1.01824 -1.23949e-19)
(0.891601 0.982015 0)
(0.801842 0.939641 -2.3101e-20)
(0.698378 0.887814 -3.65437e-21)
(0.593154 0.828374 0)
(0.502249 0.766586 0)
(0.427889 0.702733 2.64071e-19)
(0.365308 0.638664 -1.34045e-19)
(0.308108 0.562219 -2.29181e-19)
(0.242318 0.441348 0)
(0.128025 0.257158 1.78333e-19)
(0.018676 0.429926 -2.069e-19)
(0.0433377 1.81216 -1.07497e-19)
(0.0756232 2.77113 -1.39967e-19)
(0.232797 0.21804 -2.30346e-19)
(1.00893 0.959073 -6.28137e-19)
(1.14987 1.10968 1.94867e-19)
(1.14054 1.12387 1.87161e-19)
(1.09016 1.1023 0)
(1.02889 1.07433 -3.97385e-19)
(0.96017 1.04244 -2.07794e-19)
(0.88113 1.00651 9.42797e-21)
(0.790692 0.964875 -2.98216e-21)
(0.685596 0.914458 9.15637e-20)
(0.577177 0.857009 2.08358e-19)
(0.481346 0.797428 1.93227e-19)
(0.400417 0.733783 2.59597e-19)
(0.329164 0.668368 -3.0638e-19)
(0.257064 0.592803 -3.3974e-19)
(0.164135 0.469044 0)
(0.0665199 0.808137 0)
(0.123791 2.49401 9.2238e-20)
(0.126662 3.17258 0)
(0.128909 3.37675 2.10754e-19)
(0.234786 0.223238 0)
(1.00253 0.980337 0)
(1.13985 1.1324 0)
(1.12995 1.14655 5.21649e-20)
(1.07977 1.125 2.64131e-19)
(1.01855 1.09713 -3.0338e-19)
(0.950384 1.06549 -1.48828e-19)
(0.871084 1.03006 1.07426e-20)
(0.780071 0.989417 -6.07721e-20)
(0.673532 0.940846 -1.00917e-20)
(0.562147 0.886054 3.77478e-19)
(0.461614 0.829787 -2.26998e-20)
(0.373877 0.768082 2.9312e-20)
(0.295086 0.697805 4.36754e-20)
(0.208267 0.631778 5.07734e-22)
(0.129332 0.913694 1.81812e-21)
(0.168934 2.63261 -4.67044e-19)
(0.186404 3.27338 -1.74874e-19)
(0.170522 3.42435 8.12045e-20)
(0.152978 3.44989 -8.38846e-20)
(0.152525 0.180272 1.31658e-19)
(0.990097 1.00339 0)
(1.12959 1.1536 -3.79684e-19)
(1.12008 1.16799 -4.8179e-19)
(1.07014 1.14682 5.50789e-19)
(1.00918 1.11916 3.22262e-19)
(0.940869 1.08749 1.74133e-19)
(0.861555 1.05277 -1.86171e-19)
(0.770164 1.01337 6.68316e-20)
(0.662535 0.966999 0)
(0.548598 0.915445 1.63441e-19)
(0.443812 0.863215 -1.44595e-19)
(0.34923 0.807589 0)
(0.264484 0.730018 3.84127e-20)
(0.187758 0.83132 9.17054e-20)
(0.181678 2.33125 -1.13796e-19)
(0.257484 3.31042 1.26719e-19)
(0.2333 3.44372 6.09267e-20)
(0.194493 3.46845 6.88153e-20)
(0.168442 3.48015 8.61396e-20)
(0.276374 0.25943 -2.44938e-19)
(0.973569 1.01099 0)
(1.11069 1.17701 3.91492e-19)
(1.10618 1.19951 5.02314e-19)
(1.05457 1.17872 -5.67183e-19)
(0.99333 1.15159 -3.43077e-19)
(0.924427 1.12131 -2.69e-19)
(0.844782 1.08777 -1.37665e-20)
(0.752486 1.05056 -9.84456e-20)
(0.642767 1.00811 1.10799e-20)
(0.524748 0.963056 6.36745e-21)
(0.413256 0.919022 1.11567e-19)
(0.304843 0.876282 2.39366e-20)
(0.236643 0.979592 -3.44474e-20)
(0.261471 2.19603 -8.10737e-20)
(0.334045 3.3114 5.79331e-20)
(0.320659 3.48148 -5.18935e-20)
(0.279717 3.50634 -2.89365e-20)
(0.238942 3.53563 4.47159e-21)
(0.180574 3.52783 -5.26559e-22)
(0.263427 0.255532 0)
(0.970276 1.032 1.03161e-19)
(1.10261 1.19922 -7.76578e-20)
(1.09635 1.22172 -5.61218e-20)
(1.04489 1.20093 -3.73032e-19)
(0.983818 1.17402 3.35201e-19)
(0.914731 1.14389 1.81299e-19)
(0.835179 1.11114 -1.4487e-20)
(0.742819 1.07541 1.22917e-19)
(0.63255 1.03581 -1.41964e-20)
(0.512963 0.995606 -2.10508e-19)
(0.39891 0.958055 1.5828e-20)
(0.292729 0.938842 -2.07212e-20)
(0.279249 1.39891 -2.83434e-20)
(0.370035 3.01896 1.8401e-20)
(0.405244 3.47261 8.66396e-22)
(0.358579 3.54517 -2.35333e-20)
(0.317417 3.57188 -4.51696e-20)
(0.262683 3.59723 7.56394e-20)
(0.196209 3.59161 2.9316e-20)
(0.246468 0.253205 2.53221e-19)
(0.965171 1.05546 6.95281e-19)
(1.09392 1.22333 -2.22022e-19)
(1.08606 1.24533 -2.13229e-19)
(1.03473 1.22437 0)
(0.97389 1.19747 4.91529e-19)
(0.904929 1.16756 2.77033e-19)
(0.825762 1.13555 -1.52931e-20)
(0.733678 1.10137 1.26974e-20)
(0.623393 1.06478 5.64349e-20)
(0.502998 1.02968 -6.44848e-20)
(0.388137 0.999489 -1.07562e-19)
(0.297514 1.05113 -1.35279e-19)
(0.353791 2.00966 1.49139e-19)
(0.465336 3.35566 7.48244e-20)
(0.457829 3.5432 0)
(0.403383 3.59302 0)
(0.364213 3.64151 7.21901e-20)
(0.295935 3.71262 0)
(0.208913 3.67716 1.48615e-19)
(0.234909 0.253997 -3.70177e-19)
(0.958096 1.07979 -5.78974e-19)
(1.08378 1.24847 0)
(1.07452 1.2697 5.77332e-21)
(1.02339 1.24833 -3.63812e-19)
(0.962905 1.22129 7.31055e-19)
(0.894411 1.19161 1.86594e-19)
(0.815846 1.16023 -1.92006e-20)
(0.724299 1.1275 1.39959e-19)
(0.614422 1.09385 -6.88155e-21)
(0.493991 1.06396 0)
(0.380326 1.04325 0)
(0.324732 1.25373 -9.84779e-20)
(0.448616 2.68254 3.25402e-20)
(0.549824 3.48628 -2.26612e-21)
(0.507749 3.58389 0)
(0.467921 3.64414 1.66212e-19)
(0.419265 3.7262 -2.61023e-19)
(0.369466 3.72646 -2.44731e-19)