/*--------------------------------*- C++ -*----------------------------------*\
  =========                 |
  \\      /  F ield         | OpenFOAM: The Open Source CFD Toolbox
   \\    /   O peration     | Website:  https://openfoam.org
    \\  /    A nd           | Version:  9
     \\/     M anipulation  |
\*---------------------------------------------------------------------------*/
FoamFile
{
    format      ascii;
    class       volScalarField;
    location    "70";
    object      p;
}
// * * * * * * * * * * * * * * * * * * * * * * * * * * * * * * * * * * * * * //

dimensions      [0 2 -2 0 0 0 0];

internalField   nonuniform List<scalar> 
8800
(
0.867817
0.820031
0.781345
0.752354
0.731497
0.716677
0.706096
0.698638
0.69385
0.691836
0.693151
0.69738
0.704055
0.713392
0.726187
0.743932
0.768716
0.802661
0.845215
0.903917
0.699059
0.706738
0.714219
0.71753
0.716032
0.710963
0.704489
0.698431
0.693736
0.690931
0.690699
0.693251
0.697776
0.703748
0.710535
0.716828
0.720477
0.719745
0.714332
0.705646
0.677452
0.683613
0.687743
0.690693
0.69275
0.693366
0.692276
0.690196
0.688215
0.687356
0.68837
0.690796
0.693628
0.695833
0.696457
0.69527
0.692938
0.689551
0.684995
0.681235
0.671624
0.674276
0.677032
0.679441
0.681085
0.682259
0.683019
0.683164
0.682907
0.682911
0.683721
0.68494
0.685816
0.685908
0.685318
0.684242
0.682436
0.679873
0.677475
0.675971
0.66622
0.667646
0.669429
0.671468
0.673262
0.674618
0.675628
0.676457
0.677116
0.677741
0.678458
0.679009
0.679151
0.678895
0.678221
0.676989
0.675307
0.673468
0.672166
0.671334
0.661113
0.662034
0.66328
0.664855
0.666499
0.66804
0.66935
0.670452
0.671468
0.672431
0.673198
0.67359
0.673597
0.673195
0.672342
0.671163
0.669852
0.668604
0.667786
0.667235
0.656169
0.656839
0.657806
0.659117
0.66054
0.662017
0.663484
0.664847
0.666105
0.667293
0.668205
0.668649
0.668624
0.66816
0.667388
0.666466
0.665474
0.664564
0.663985
0.663578
0.651338
0.651855
0.652644
0.653785
0.655077
0.656472
0.65795
0.659469
0.660964
0.662396
0.663508
0.66407
0.664116
0.663786
0.663224
0.662531
0.661782
0.661115
0.660687
0.660369
0.64655
0.64696
0.647622
0.64864
0.649862
0.651214
0.652696
0.654305
0.656005
0.657712
0.659083
0.659849
0.660098
0.659996
0.659664
0.659187
0.658647
0.658175
0.657859
0.657599
0.641715
0.642049
0.642622
0.643562
0.644739
0.646079
0.647601
0.649316
0.651212
0.653222
0.654926
0.656002
0.65654
0.656701
0.656606
0.65636
0.65602
0.655711
0.655479
0.655261
0.636744
0.637021
0.637533
0.638428
0.63959
0.640959
0.64256
0.644422
0.646559
0.648919
0.651043
0.652516
0.653401
0.653863
0.654031
0.654019
0.653878
0.653712
0.653549
0.65336
0.631546
0.631778
0.632252
0.633133
0.634319
0.63576
0.637483
0.639548
0.641991
0.644786
0.647424
0.649374
0.650665
0.651475
0.651937
0.652165
0.65223
0.652198
0.652091
0.651922
0.626026
0.626224
0.626678
0.627575
0.628827
0.630385
0.632286
0.634622
0.637453
0.640792
0.644052
0.646569
0.648338
0.649544
0.650338
0.65083
0.651114
0.651208
0.651148
0.650992
0.620082
0.62025
0.620703
0.621644
0.623004
0.62473
0.626876
0.629562
0.632886
0.636895
0.640909
0.644104
0.646435
0.648101
0.649274
0.65008
0.650586
0.650802
0.650784
0.650636
0.61359
0.613734
0.6142
0.615215
0.61673
0.618683
0.621151
0.624285
0.628225
0.633056
0.637981
0.641987
0.644986
0.647193
0.648801
0.649956
0.650711
0.651055
0.651074
0.650929
0.606409
0.606529
0.607022
0.608142
0.609862
0.612113
0.614993
0.618693
0.623399
0.629234
0.635258
0.64023
0.644018
0.646865
0.648985
0.650537
0.651578
0.652055
0.652108
0.651962
0.598348
0.598455
0.59899
0.600249
0.602231
0.604858
0.608263
0.612675
0.618327
0.625386
0.632731
0.638854
0.643572
0.64717
0.649907
0.651928
0.653286
0.653901
0.653985
0.653834
0.589181
0.58928
0.589873
0.591295
0.593611
0.596728
0.600798
0.606099
0.61292
0.621469
0.630399
0.637885
0.643703
0.648183
0.651649
0.654217
0.655933
0.656695
0.656807
0.656648
0.578587
0.578667
0.579349
0.580997
0.58375
0.587492
0.592398
0.598814
0.607083
0.617445
0.628267
0.637357
0.644466
0.649988
0.654283
0.657504
0.659621
0.660533
0.660669
0.660497
0.566183
0.566249
0.567031
0.56899
0.572302
0.576845
0.582821
0.590647
0.600716
0.613281
0.62635
0.637317
0.645918
0.652651
0.657917
0.661883
0.664434
0.665497
0.665648
0.66546
0.551401
0.551455
0.552381
0.554757
0.55881
0.564406
0.571775
0.581406
0.593723
0.60896
0.624675
0.637812
0.648117
0.656233
0.662622
0.667421
0.670429
0.671628
0.671783
0.671577
0.53346
0.533503
0.534643
0.537607
0.542674
0.549694
0.558917
0.570894
0.586037
0.6045
0.623296
0.6389
0.651131
0.660801
0.668419
0.674147
0.677606
0.67891
0.679055
0.678829
0.51118
0.511222
0.512712
0.516562
0.523092
0.532116
0.543881
0.558953
0.577648
0.599975
0.622306
0.640656
0.655004
0.666386
0.675341
0.682031
0.685889
0.687246
0.68736
0.687113
0.482786
0.482849
0.484935
0.490217
0.499026
0.510994
0.526345
0.545529
0.56866
0.595542
0.621842
0.64317
0.659776
0.672974
0.683356
0.690959
0.695103
0.69643
0.696491
0.696227
0.445197
0.445364
0.448678
0.456602
0.469255
0.485734
0.506197
0.530779
0.559336
0.591458
0.622088
0.646544
0.665488
0.680535
0.692353
0.700714
0.704949
0.706142
0.706131
0.705856
0.392506
0.393513
0.400109
0.413476
0.432817
0.45628
0.483799
0.515204
0.550148
0.588075
0.62325
0.650876
0.672148
0.688994
0.702115
0.710956
0.71502
0.715976
0.715887
0.715612
0.315661
0.32309
0.338361
0.361939
0.39124
0.424055
0.460194
0.499447
0.541461
0.585654
0.625663
0.656641
0.680392
0.699154
0.713464
0.722537
0.726262
0.726972
0.726834
0.726595
0.233111
0.250664
0.275402
0.309808
0.349472
0.391766
0.436566
0.483823
0.533248
0.58431
0.629951
0.664955
0.69161
0.712538
0.728102
0.736904
0.739879
0.740299
0.740188
0.740025
0.164271
0.184951
0.2175
0.261104
0.309898
0.361114
0.414308
0.469406
0.526087
0.583793
0.634752
0.673452
0.702666
0.725296
0.741244
0.749395
0.751848
0.752208
0.752154
0.75203
0.107885
0.130238
0.168359
0.218462
0.274469
0.333194
0.393816
0.456111
0.519605
0.583628
0.639611
0.681755
0.713247
0.737173
0.753474
0.761339
0.763561
0.763895
0.763879
0.763785
0.0609765
0.0845131
0.126455
0.181712
0.243517
0.308443
0.375441
0.444134
0.513875
0.583825
0.644592
0.689999
0.723674
0.748977
0.76578
0.773468
0.775639
0.775994
0.776009
0.775939
0.0212704
0.0454565
0.0902908
0.149619
0.2163
0.286508
0.359054
0.433451
0.508904
0.584404
0.649748
0.698345
0.734198
0.760869
0.778245
0.786216
0.788414
0.788726
0.788756
0.788703
-0.013283
0.0113142
0.0584179
0.121113
0.19192
0.26673
0.344205
0.423761
0.504495
0.585239
0.65499
0.70671
0.74472
0.772792
0.791004
0.799325
0.801607
0.801928
0.801956
0.801921
-0.0442018
-0.0192531
0.0296976
0.0952635
0.169638
0.248488
0.330396
0.414684
0.500351
0.586089
0.660111
0.714901
0.755083
0.784591
0.803617
0.812371
0.814826
0.815151
0.815178
0.815157
-0.0724787
-0.0472225
0.00330292
0.0713555
0.148863
0.231309
0.31722
0.405858
0.496161
0.586696
0.664901
0.722723
0.765016
0.795951
0.81577
0.82495
0.827605
0.827976
0.827984
0.827971
-0.0989376
-0.0733334
-0.0213965
0.0488351
0.129147
0.214809
0.304346
0.397004
0.491685
0.586861
0.669187
0.730003
0.774366
0.806664
0.827244
0.836821
0.839638
0.840035
0.840017
0.839997
-0.123971
-0.0980174
-0.0447539
0.027325
0.110155
0.198708
0.291544
0.387924
0.486742
0.586418
0.672839
0.736646
0.783041
0.816611
0.837846
0.847707
0.850643
0.851043
0.851001
0.850963
-0.148042
-0.121666
-0.067401
0.00658638
0.0916517
0.182807
0.278651
0.378465
0.481183
0.585234
0.675767
0.742618
0.791026
0.825775
0.847498
0.857539
0.860515
0.860895
0.860817
0.860763
-0.171289
-0.14444
-0.0892237
-0.0135689
0.0734893
0.166984
0.265551
0.368529
0.474916
0.583221
0.677908
0.747902
0.798359
0.834179
0.856243
0.866318
0.869243
0.869604
0.86949
0.869422
-0.19387
-0.166611
-0.11036
-0.0332612
0.0555881
0.151173
0.252192
0.358061
0.467879
0.580297
0.679191
0.752508
0.805134
0.841997
0.86423
0.874132
0.876955
0.877255
0.877123
0.877038
-0.215917
-0.188171
-0.130941
-0.0525427
0.0378989
0.135348
0.238564
0.347052
0.46004
0.576399
0.679555
0.756435
0.811471
0.849401
0.87162
0.881164
0.883746
0.883963
0.883806
0.883711
-0.237501
-0.209159
-0.151044
-0.0714274
0.0204325
0.119517
0.224687
0.335517
0.4514
0.571481
0.678928
0.759664
0.817465
0.856618
0.878662
0.887564
0.889734
0.889822
0.889643
0.889543
-0.258479
-0.229573
-0.170606
-0.0899074
0.00320184
0.103727
0.210601
0.323509
0.441994
0.565541
0.677228
0.762137
0.823167
0.86389
0.885705
0.893595
0.895046
0.894915
0.894731
0.894637
-0.278837
-0.249391
-0.189624
-0.107948
-0.0137521
0.0880211
0.19638
0.311088
0.431879
0.558582
0.674385
0.763736
0.828553
0.871425
0.893246
0.89982
0.900007
0.89937
0.899195
0.899159
-0.298648
-0.268589
-0.208091
-0.12553
-0.0303766
0.0724712
0.1821
0.298344
0.421129
0.550647
0.670333
0.764303
0.833483
0.879268
0.90181
0.907217
0.905478
0.903597
0.903259
0.903574
-0.317759
-0.287155
-0.225956
-0.142606
-0.0466214
0.057152
0.167846
0.285377
0.409849
0.541813
0.665031
0.763636
0.837694
0.887177
0.911604
0.917001
0.913556
0.909319
0.907511
0.907597
-0.336262
-0.305086
-0.243244
-0.159213
-0.0625223
0.0420196
0.153563
0.272133
0.397975
0.53201
0.658346
0.76146
0.840905
0.89473
0.922232
0.929711
0.926625
0.919333
0.91195
0.898612
-0.354092
-0.322371
-0.26007
-0.17555
-0.0783573
0.0267546
0.138851
0.258153
0.385001
0.520643
0.649684
0.75707
0.842671
0.901411
0.932331
0.943731
0.941413
0.927608
0.906638
0.896606
-0.371083
-0.339168
-0.276249
-0.191426
-0.0937723
0.0116936
0.123929
0.243747
0.371211
0.507936
0.639043
0.749892
0.842007
0.905972
0.937869
0.949362
0.948509
0.922962
0.855899
0.82607
-0.386582
-0.356754
-0.291483
-0.206369
-0.107964
-0.00266163
0.109113
0.229144
0.356819
0.493998
0.626313
0.73953
0.83728
0.907561
0.933383
0.939819
0.924126
0.86734
0.797926
0.755469
-0.441122
-0.372248
-0.30524
-0.22151
-0.122608
-0.0178121
0.0943302
0.214047
0.341435
0.478336
0.610826
0.725192
0.824359
0.901703
0.901942
0.899987
0.844369
0.770656
0.692825
0.649532
-0.402831
-0.386908
-0.325758
-0.240919
-0.144283
-0.0395134
0.0716078
0.190726
0.317223
0.452913
0.583838
0.697142
0.789567
0.872878
0.854129
0.733967
0.6246
0.548559
0.473611
0.502148
-0.432985
-0.404
-0.341983
-0.257994
-0.161407
-0.0567549
0.0546569
0.17316
0.29863
0.432603
0.560872
0.670043
0.752646
0.796787
0.744013
0.588789
0.456987
0.36292
0.262827
0.310984
-0.456197
-0.4243
-0.361184
-0.277076
-0.180372
-0.0758307
0.0355036
0.153182
0.277272
0.408879
0.533468
0.636356
0.709818
0.718919
0.607255
0.430072
0.274072
0.152761
0.0201883
0.0519796
-0.47885
-0.445484
-0.38126
-0.296259
-0.199489
-0.0951111
0.0156883
0.132401
0.2549
0.383728
0.503609
0.598369
0.656051
0.633305
0.469728
0.269867
0.0771013
-0.0925946
-0.282057
-0.30195
-0.500903
-0.467131
-0.402066
-0.316321
-0.219438
-0.115303
-0.00517349
0.110437
0.231067
0.356678
0.471066
0.557485
0.595184
0.535072
0.338631
0.125085
-0.0940853
-0.284577
-0.527055
-0.822883
-0.523247
-0.489495
-0.423936
-0.337746
-0.240709
-0.136771
-0.0272484
0.087211
0.205842
0.327931
0.436428
0.514252
0.529874
0.41797
0.224368
0.0116523
-0.19454
-0.368071
-0.438571
-0.516859
-0.546824
-0.513038
-0.447217
-0.360844
-0.263792
-0.160152
-0.0513368
0.0617869
0.178082
0.296079
0.398232
0.464673
0.45471
0.308961
0.122606
-0.0710359
-0.235979
-0.330228
-0.354609
-0.370403
-0.571939
-0.538054
-0.472077
-0.38569
-0.288816
-0.185654
-0.0777964
0.0336767
0.147197
0.260425
0.355732
0.407431
0.379436
0.207591
0.0302601
-0.13819
-0.26666
-0.306391
-0.319214
-0.320518
-0.598792
-0.564716
-0.498584
-0.412282
-0.315733
-0.213285
-0.106648
0.00282862
0.113122
0.220983
0.30847
0.345419
0.296841
0.113975
-0.0542695
-0.205174
-0.282578
-0.299645
-0.30104
-0.300862
-0.627442
-0.593086
-0.526765
-0.44062
-0.344562
-0.243035
-0.137898
-0.0307737
0.0758661
0.177832
0.256586
0.281527
0.196242
0.0285623
-0.131322
-0.255785
-0.292869
-0.291198
-0.290271
-0.289681
-0.657606
-0.622995
-0.556522
-0.470623
-0.37522
-0.274854
-0.171517
-0.0671048
0.0354706
0.131086
0.200975
0.208659
0.105011
-0.0505433
-0.192182
-0.270072
-0.280196
-0.282638
-0.283242
-0.282952
-0.688741
-0.653988
-0.587603
-0.502069
-0.407527
-0.308591
-0.207359
-0.106034
-0.00787765
0.0811048
0.14215
0.134687
0.023442
-0.117442
-0.236604
-0.268583
-0.277177
-0.27853
-0.27823
-0.277909
-0.720388
-0.685533
-0.619555
-0.534571
-0.441145
-0.343932
-0.24515
-0.147276
-0.053891
0.0285902
0.0792322
0.0645872
-0.0510489
-0.171422
-0.266196
-0.284173
-0.275313
-0.274319
-0.274236
-0.273984
-0.751652
-0.716927
-0.65154
-0.567535
-0.475541
-0.380413
-0.284445
-0.190358
-0.102095
-0.0258037
0.0150228
0.000629639
-0.115668
-0.211836
-0.268364
-0.277498
-0.274029
-0.272606
-0.271966
-0.271699
-0.781014
-0.747001
-0.682588
-0.600052
-0.509965
-0.417347
-0.324604
-0.234605
-0.15169
-0.081501
-0.0441793
-0.0697966
-0.16704
-0.246944
-0.253431
-0.270142
-0.273411
-0.271506
-0.270837
-0.270395
-0.806864
-0.773915
-0.711586
-0.630972
-0.543397
-0.453817
-0.36478
-0.279175
-0.201569
-0.137617
-0.100165
-0.137584
-0.211253
-0.260401
-0.282682
-0.277644
-0.276499
-0.276286
-0.276027
-0.275579
-0.827098
-0.795881
-0.736427
-0.658901
-0.574572
-0.488713
-0.403906
-0.323058
-0.25062
-0.192809
-0.157687
-0.192673
-0.248141
-0.291434
-0.313566
-0.29834
-0.290585
-0.289487
-0.288415
-0.287789
-0.839516
-0.810999
-0.755341
-0.681946
-0.60202
-0.52074
-0.440813
-0.36508
-0.297784
-0.245489
-0.213035
-0.238927
-0.27644
-0.319858
-0.305854
-0.300499
-0.298589
-0.296847
-0.295692
-0.295668
-0.841529
-0.817041
-0.766342
-0.698352
-0.624075
-0.548507
-0.474208
-0.404014
-0.341919
-0.294275
-0.258816
-0.275732
-0.292748
-0.336963
-0.315884
-0.300777
-0.293123
-0.289849
-0.289196
-0.288873
-0.830898
-0.811203
-0.767278
-0.706556
-0.639301
-0.570573
-0.502793
-0.438604
-0.381816
-0.338014
-0.296266
-0.293268
-0.273902
-0.292148
-0.287686
-0.278729
-0.279751
-0.28083
-0.280977
-0.280545
-0.805762
-0.790999
-0.756379
-0.705328
-0.64672
-0.585975
-0.525435
-0.467597
-0.416228
-0.376131
-0.327896
-0.294719
-0.220546
-0.148469
-0.17494
-0.235465
-0.267188
-0.279603
-0.283862
-0.285026
-0.768696
-0.759199
-0.734508
-0.694827
-0.64633
-0.59446
-0.541525
-0.490008
-0.443899
-0.407802
-0.373903
-0.328631
-0.266327
-0.203206
-0.251445
-0.295405
-0.319433
-0.328247
-0.332451
-0.334644
-0.726398
-0.721004
-0.706488
-0.677867
-0.640041
-0.596802
-0.551159
-0.505466
-0.463409
-0.431499
-0.406533
-0.406165
-0.475192
-0.617035
-0.658262
-0.569353
-0.476237
-0.432926
-0.422768
-0.420941
-0.68857
-0.685305
-0.678431
-0.659799
-0.63072
-0.59479
-0.555301
-0.513889
-0.473886
-0.442136
-0.421276
-0.445355
-0.497096
-0.534143
-0.469909
-0.393719
-0.391624
-0.410961
-0.414385
-0.413376
-0.661565
-0.659562
-0.656061
-0.644755
-0.622114
-0.591323
-0.555673
-0.516145
-0.475202
-0.435678
-0.412368
-0.378173
-0.361868
-0.364875
-0.439365
-0.541031
-0.622782
-0.611493
-0.525256
-0.502575
-0.641122
-0.64037
-0.639212
-0.633656
-0.616735
-0.589154
-0.554307
-0.514386
-0.469871
-0.423667
-0.391023
-0.351824
-0.308682
-0.29337
-0.330576
-0.378742
-0.417176
-0.423978
-0.353552
-0.330324
-0.629421
-0.629136
-0.628534
-0.626064
-0.614319
-0.588302
-0.552439
-0.510139
-0.461743
-0.407538
-0.360391
-0.326856
-0.22037
-0.0902328
0.0484262
0.142795
0.134727
0.114923
0.109814
0.112767
-0.621611
-0.621516
-0.621184
-0.620577
-0.613396
-0.589113
-0.551506
-0.505409
-0.451355
-0.385573
-0.319072
-0.2425
-0.109823
0.0638836
0.190525
0.254014
0.322717
0.407114
0.481923
0.516199
-0.615849
-0.615925
-0.616023
-0.616598
-0.611926
-0.590925
-0.551971
-0.501765
-0.439848
-0.366449
-0.277491
-0.181921
0.00911201
0.232904
0.461867
0.656795
0.817344
0.965013
1.06674
1.10719
-0.610749
-0.610659
-0.610226
-0.609195
-0.607744
-0.593201
-0.554605
-0.499547
-0.432157
-0.349317
-0.247572
-0.149732
0.0601778
0.35801
0.69038
1.0051
1.26676
1.44134
1.53113
1.55826
-0.608604
-0.608765
-0.60893
-0.608324
-0.607734
-0.599072
-0.559385
-0.501218
-0.430571
-0.341368
-0.237953
-0.131373
0.0412124
0.351915
0.700394
1.01825
1.28001
1.44176
1.51294
1.5307
-0.608615
-0.609896
-0.613591
-0.621126
-0.628818
-0.612332
-0.566354
-0.508789
-0.436655
-0.344773
-0.243704
-0.141235
-0.0115024
0.264458
0.562822
0.824507
1.03155
1.15191
1.20265
1.21403
-0.61748
-0.618689
-0.618419
-0.612641
-0.606467
-0.593741
-0.568007
-0.52217
-0.449695
-0.356388
-0.259263
-0.162605
-0.0636635
0.139147
0.377468
0.574465
0.725242
0.80811
0.841375
0.84633
-0.657044
-0.655833
-0.640883
-0.592266
-0.535878
-0.537541
-0.57021
-0.5446
-0.469623
-0.37295
-0.278236
-0.194653
-0.121937
0.0262686
0.199332
0.340833
0.445922
0.50068
0.521361
0.523653
-0.719239
-0.716551
-0.716154
-0.703286
-0.688711
-0.67443
-0.669392
-0.594414
-0.495525
-0.389458
-0.298392
-0.225192
-0.169186
-0.0624257
0.0573263
0.151418
0.218141
0.252527
0.264234
0.265201
-0.853316
-0.871259
-0.921983
-0.981266
-0.99583
-0.954896
-0.840003
-0.671943
-0.524788
-0.403084
-0.311875
-0.246705
-0.199099
-0.124476
-0.0520957
0.00365029
0.0387567
0.053864
0.0597705
0.0597224
-0.984536
-1.01278
-1.06624
-1.11168
-1.12325
-1.07592
-0.92355
-0.710668
-0.534182
-0.40379
-0.316723
-0.259361
-0.218625
-0.16846
-0.128047
-0.103693
-0.0927129
-0.0888648
-0.0877621
-0.0873062
-0.952867
-0.97324
-1.01139
-1.04592
-1.05455
-1.00517
-0.848631
-0.658222
-0.499126
-0.381706
-0.307133
-0.261596
-0.22917
-0.195428
-0.172173
-0.162065
-0.163298
-0.165533
-0.164061
-0.16309
-0.717887
-0.738252
-0.77476
-0.81388
-0.829223
-0.785802
-0.662283
-0.530252
-0.418156
-0.335258
-0.284054
-0.257458
-0.238752
-0.212171
-0.190923
-0.180913
-0.177248
-0.175233
-0.173129
-0.17277
-0.363512
-0.377386
-0.404753
-0.439585
-0.466224
-0.461747
-0.422306
-0.368172
-0.316623
-0.273755
-0.248523
-0.242381
-0.239005
-0.212182
-0.184733
-0.166661
-0.156947
-0.151314
-0.149116
-0.149374
-0.0489443
-0.0564025
-0.0750186
-0.106497
-0.145194
-0.179785
-0.203673
-0.214641
-0.213804
-0.205681
-0.202716
-0.210627
-0.214638
-0.187707
-0.160982
-0.141038
-0.127003
-0.119931
-0.118309
-0.119335
0.133346
0.12914
0.11579
0.0880079
0.0438294
-0.0102063
-0.0603407
-0.0998294
-0.125821
-0.140202
-0.148855
-0.157824
-0.158418
-0.140447
-0.122891
-0.110139
-0.100611
-0.0959488
-0.0953159
-0.0963545
0.197633
0.194915
0.184928
0.162092
0.123503
0.0734177
0.0207593
-0.0260615
-0.0611895
-0.0832635
-0.0937947
-0.0961507
-0.0915327
-0.0861762
-0.0828885
-0.0799584
-0.0767764
-0.0752006
-0.075368
-0.0764552
0.19846
0.196642
0.189576
0.172897
0.143981
0.105107
0.0614486
0.0196756
-0.0148452
-0.037375
-0.0439157
-0.0382164
-0.0305751
-0.0374506
-0.0474981
-0.0540977
-0.0575185
-0.0595682
-0.0608534
-0.0618623
0.1742
0.173112
0.168492
0.157243
0.137262
0.109472
0.0763515
0.043282
0.0149603
-0.00323487
-0.00587984
0.00338245
0.0102458
-0.00439858
-0.0215681
-0.0347482
-0.0435647
-0.0491257
-0.051556
-0.0522793
0.142936
0.142365
0.139548
0.132355
0.119168
0.100216
0.0767164
0.0524476
0.0312016
0.0185175
0.0193529
0.0280102
0.0307448
0.0151376
-0.00367767
-0.0192305
-0.0309505
-0.0386332
-0.0414672
-0.0418308
0.111283
0.111048
0.109468
0.105121
0.0968202
0.0844635
0.0686504
0.0521028
0.0376081
0.0303257
0.034295
0.043075
0.0434855
0.0282141
0.0103636
-0.00432497
-0.0155139
-0.0226135
-0.0250173
-0.0252269
0.0817394
0.0816597
0.0808365
0.0783441
0.0733413
0.0656551
0.0555967
0.0450404
0.0362411
0.0336134
0.0410722
0.0527765
0.0534289
0.0375788
0.0215294
0.0100691
0.00180399
-0.00271704
-0.00431872
-0.0046364
0.0542546
0.0542953
0.0539683
0.0527273
0.0500179
0.0456385
0.0398015
0.0336821
0.02905
0.0294198
0.0383738
0.0519453
0.0551538
0.0401625
0.0271859
0.0192628
0.0148471
0.0128663
0.0119322
0.0114439
0.0289374
0.0290351
0.0289676
0.0285281
0.0272981
0.025276
0.0224647
0.0194662
0.0175768
0.0188915
0.0257142
0.0365367
0.0393247
0.0277848
0.0204463
0.0175213
0.0171316
0.0173234
0.0165906
0.015852
0.00523041
0.00530066
0.00528237
0.00541885
0.00561785
0.00547194
0.0049713
0.00439269
0.00393307
0.00339549
0.00372013
0.00385138
0.00742764
0.00912963
0.00651593
0.00649135
0.0046661
0.00364687
0.00367387
0.00348223
-0.0572627
0.108192
0.30096
0.469104
0.602845
0.707402
0.793424
0.866736
0.900386
0.877181
0.241076
0.360564
0.488952
0.599627
0.692575
0.769202
0.831192
0.875264
0.897329
0.909552
0.456946
0.538767
0.626472
0.703722
0.770034
0.825476
0.869594
0.901881
0.925317
0.9434
0.615801
0.674455
0.735078
0.791501
0.840459
0.882062
0.91628
0.943631
0.966254
0.984614
0.73987
0.782454
0.827941
0.87125
0.909542
0.94301
0.971695
0.995612
1.01589
1.03376
0.843336
0.875904
0.913698
0.948934
0.981309
1.01036
1.03577
1.05715
1.07493
1.0923
0.935356
0.963872
0.997632
1.02959
1.05938
1.08643
1.11008
1.12974
1.1452
1.16228
1.02363
1.05272
1.0866
1.11854
1.14805
1.17456
1.19736
1.21581
1.22915
1.24619
1.11875
1.15189
1.18846
1.22197
1.25196
1.2781
1.30002
1.31727
1.32911
1.34651
1.23363
1.27142
1.31002
1.34423
1.37354
1.39825
1.4186
1.43448
1.44593
1.46399
1.37851
1.41703
1.45314
1.4838
1.50946
1.53154
1.55058
1.56609
1.57851
1.59651
1.55354
1.58515
1.61131
1.63375
1.65371
1.67242
1.69013
1.7066
1.72194
1.74001
1.74213
1.75932
1.77435
1.79057
1.80647
1.821
1.8342
1.84812
1.86566
1.88581
1.92384
1.93337
1.9449
1.95571
1.96499
1.97457
1.98535
1.99671
2.00807
2.02342
2.13106
2.13472
2.11977
2.10496
2.09868
2.10435
2.12283
2.15314
2.18532
2.21197
2.43738
2.30252
2.22587
2.18348
2.16606
2.17002
2.19742
2.25383
2.35645
2.58082
0.758413
0.756286
0.751803
0.743182
0.730963
0.718842
0.708624
0.700745
0.695151
0.691928
0.691613
0.694387
0.69952
0.706763
0.716165
0.727714
0.740372
0.751411
0.757525
0.760581
0.682856
0.688704
0.695039
0.699536
0.702012
0.701695
0.698969
0.695177
0.691691
0.689465
0.689358
0.691595
0.695287
0.699598
0.70342
0.705313
0.704384
0.700909
0.695748
0.689128
0.674414
0.676711
0.680117
0.683118
0.685199
0.686705
0.687473
0.687175
0.686176
0.68533
0.685549
0.687018
0.688866
0.690195
0.690392
0.689514
0.687974
0.685644
0.682385
0.679467
0.668879
0.669965
0.671801
0.674184
0.676215
0.677653
0.678689
0.679462
0.679894
0.680157
0.680698
0.681552
0.682186
0.68228
0.681887
0.681053
0.679594
0.677518
0.675437
0.674056
0.663643
0.664305
0.665416
0.667127
0.668917
0.670561
0.671874
0.672915
0.673832
0.67467
0.675457
0.676062
0.676298
0.676162
0.675619
0.674582
0.673167
0.671633
0.670322
0.669544
0.658626
0.659085
0.659874
0.661179
0.662676
0.664207
0.665692
0.667018
0.668194
0.669305
0.670288
0.670919
0.671114
0.670877
0.670208
0.669241
0.668132
0.667012
0.666105
0.665589
0.653745
0.654089
0.654703
0.655778
0.657084
0.658474
0.659936
0.661414
0.662833
0.664177
0.665367
0.666133
0.66637
0.66614
0.665576
0.664827
0.663997
0.663146
0.662483
0.662107
0.648946
0.649213
0.649709
0.650626
0.651809
0.653124
0.654545
0.656071
0.657665
0.659259
0.6607
0.661659
0.662033
0.661969
0.66162
0.661095
0.660473
0.659853
0.659373
0.659086
0.644146
0.644358
0.644771
0.645578
0.646683
0.647953
0.649368
0.650946
0.652679
0.654521
0.656263
0.657499
0.658126
0.658314
0.658203
0.657905
0.657496
0.657072
0.656733
0.656509
0.639254
0.639425
0.639779
0.640515
0.641575
0.642827
0.644274
0.645942
0.647841
0.64995
0.652052
0.653663
0.654626
0.655114
0.655266
0.655207
0.655017
0.654771
0.654549
0.654371
0.634181
0.634319
0.634632
0.635323
0.63637
0.637649
0.639168
0.640969
0.643089
0.645524
0.648065
0.65014
0.651509
0.652345
0.652798
0.652995
0.653022
0.652951
0.65283
0.652686
0.628835
0.628945
0.629231
0.629904
0.630971
0.632323
0.633958
0.635948
0.638356
0.641202
0.644284
0.646917
0.648767
0.650006
0.650799
0.651277
0.651536
0.651639
0.651605
0.651489
0.623117
0.623204
0.623473
0.624153
0.625276
0.626744
0.62855
0.630797
0.633573
0.636937
0.640681
0.643985
0.646403
0.648113
0.64929
0.650097
0.650614
0.650884
0.650929
0.650834
0.616915
0.616981
0.617244
0.617952
0.61917
0.620801
0.622842
0.625425
0.628669
0.632678
0.637228
0.641339
0.644434
0.646696
0.648319
0.649495
0.650298
0.65075
0.65087
0.650791
0.610098
0.610143
0.610407
0.611166
0.612519
0.614369
0.616719
0.61973
0.623567
0.628369
0.633899
0.638979
0.642877
0.645794
0.647942
0.649534
0.650666
0.651316
0.65151
0.651444
0.602509
0.602533
0.602799
0.603632
0.605163
0.607297
0.610042
0.613599
0.618173
0.623952
0.63067
0.636909
0.64176
0.645446
0.648217
0.650307
0.651814
0.652676
0.652944
0.652888
0.593923
0.593936
0.594216
0.595149
0.596916
0.599395
0.602648
0.606892
0.612384
0.619361
0.627515
0.635139
0.641118
0.64571
0.649216
0.651905
0.653839
0.654933
0.655274
0.655224
0.584058
0.584042
0.584373
0.585451
0.587506
0.590447
0.594342
0.599449
0.606084
0.61453
0.624419
0.633686
0.640994
0.646655
0.651022
0.654407
0.656837
0.658187
0.6586
0.658553
0.572601
0.57256
0.57294
0.57421
0.576636
0.580169
0.58488
0.591078
0.599141
0.609394
0.621367
0.632577
0.641438
0.648348
0.653726
0.657911
0.66091
0.662529
0.663011
0.662961
0.559056
0.558988
0.559448
0.560972
0.563885
0.568188
0.573955
0.581553
0.591415
0.603891
0.618362
0.631848
0.642502
0.650845
0.657404
0.662509
0.666135
0.66803
0.668568
0.66851
0.542757
0.54266
0.543248
0.545128
0.548693
0.554026
0.561193
0.570615
0.582767
0.597982
0.615425
0.631546
0.644245
0.654215
0.662102
0.668249
0.672551
0.67471
0.675286
0.675212
0.522748
0.522624
0.523417
0.525816
0.530302
0.537066
0.546144
0.557996
0.573091
0.591675
0.612619
0.63174
0.64673
0.658511
0.667848
0.675149
0.680141
0.682522
0.683105
0.683008
0.497581
0.497442
0.498574
0.501778
0.507659
0.51652
0.528311
0.543468
0.562358
0.585059
0.610065
0.632535
0.650016
0.663756
0.674671
0.68318
0.688804
0.691325
0.691872
0.691744
0.464903
0.464788
0.46654
0.471144
0.479346
0.491482
0.507253
0.526948
0.550694
0.578334
0.607952
0.634057
0.654172
0.669967
0.682514
0.692221
0.69833
0.700858
0.701319
0.701156
0.420491
0.420546
0.423666
0.431189
0.4437
0.46118
0.482851
0.508664
0.538455
0.571849
0.606539
0.636452
0.659261
0.677128
0.691293
0.702059
0.708376
0.710728
0.711056
0.710861
0.356431
0.357674
0.365308
0.379352
0.399756
0.425742
0.455727
0.489333
0.526274
0.566071
0.6061
0.639857
0.665304
0.685158
0.70076
0.712241
0.718444
0.720381
0.720536
0.720324
0.280542
0.28237
0.29699
0.321124
0.352576
0.388594
0.42763
0.469511
0.51407
0.560854
0.606971
0.64535
0.674065
0.696325
0.71351
0.725591
0.731408
0.732989
0.733092
0.73296
0.202301
0.208623
0.230211
0.26471
0.306651
0.352416
0.400456
0.45065
0.502887
0.556734
0.609048
0.652115
0.684057
0.708655
0.727583
0.739646
0.744579
0.745642
0.74569
0.745631
0.138265
0.146951
0.173141
0.214734
0.264894
0.318953
0.375103
0.433072
0.492629
0.55326
0.611477
0.658912
0.6938
0.720353
0.740056
0.751935
0.756469
0.757431
0.757523
0.757523
0.0861895
0.0954775
0.125252
0.172129
0.228486
0.28923
0.352237
0.417068
0.483303
0.550285
0.614097
0.665656
0.703268
0.731582
0.752177
0.764127
0.768409
0.769277
0.769416
0.769468
0.0426554
0.0522251
0.0844663
0.135368
0.196814
0.263105
0.331928
0.402765
0.475021
0.547878
0.616978
0.672502
0.712761
0.742873
0.764449
0.776509
0.780686
0.781728
0.781906
0.781999
0.00528661
0.0149582
0.0490391
0.103159
0.16882
0.239848
0.313751
0.389919
0.46764
0.545955
0.620086
0.679453
0.722332
0.754213
0.77678
0.789324
0.793766
0.794857
0.795003
0.795122
-0.0276104
-0.0179189
0.0175663
0.0744012
0.143598
0.218717
0.297121
0.3781
0.460858
0.544301
0.623249
0.686354
0.731814
0.765489
0.789215
0.80237
0.807074
0.808239
0.808409
0.808498
-0.057341
-0.0476302
-0.0109994
0.0481777
0.120408
0.199115
0.281536
0.366899
0.454327
0.542624
0.626223
0.692999
0.741017
0.776502
0.801318
0.815136
0.82016
0.821374
0.821523
0.821593
-0.0848159
-0.0750788
-0.037468
0.023776
0.0986856
0.180579
0.266603
0.355965
0.447744
0.540671
0.628807
0.699198
0.749725
0.786928
0.812852
0.827251
0.832642
0.83391
0.834024
0.834065
-0.110621
-0.100833
-0.0623279
0.00066665
0.0779981
0.162743
0.252019
0.345045
0.440891
0.538248
0.630829
0.704815
0.757821
0.796691
0.823612
0.838536
0.844202
0.8455
0.845584
0.84559
-0.135253
-0.125354
-0.0859589
-0.0214856
0.0580516
0.145347
0.23757
0.333956
0.433602
0.535192
0.632154
0.709764
0.765245
0.805724
0.83356
0.848842
0.854643
0.855959
0.856007
0.855978
-0.159013
-0.148918
-0.108791
-0.0428421
0.0386449
0.128218
0.223108
0.322569
0.425748
0.531392
0.632695
0.713995
0.772005
0.814036
0.842616
0.858125
0.863973
0.865236
0.865272
0.865215
-0.182017
-0.171734
-0.130938
-0.0635605
0.0196431
0.111264
0.208546
0.310803
0.417259
0.526761
0.632365
0.717474
0.778124
0.821723
0.850911
0.866479
0.872216
0.873431
0.873419
0.873346
-0.204465
-0.193921
-0.152393
-0.0837617
0.000977498
0.0944241
0.193844
0.298631
0.4081
0.521244
0.631088
0.720167
0.783673
0.828936
0.858617
0.874034
0.879539
0.880631
0.880577
0.880482
-0.22632
-0.215522
-0.173314
-0.103502
-0.0173753
0.0776888
0.179014
0.286061
0.398264
0.514804
0.628802
0.722022
0.788704
0.835833
0.86595
0.880989
0.886066
0.88696
0.886851
0.886739
-0.247648
-0.236577
-0.19365
-0.122783
-0.0354127
0.0610724
0.164074
0.273129
0.387782
0.507442
0.625446
0.72297
0.793225
0.842581
0.873195
0.887578
0.891915
0.892486
0.892314
0.892198
-0.26832
-0.257037
-0.213396
-0.141571
-0.0531046
0.0446306
0.149077
0.25989
0.376709
0.499192
0.620977
0.722922
0.797188
0.849297
0.880704
0.894245
0.897397
0.897341
0.897059
0.896972
-0.288471
-0.27687
-0.232557
-0.159858
-0.0704314
0.0283912
0.134102
0.246413
0.365115
0.490114
0.615383
0.721759
0.800463
0.855985
0.888816
0.901686
0.9032
0.901857
0.90122
0.90121
-0.307948
-0.296056
-0.251112
-0.177615
-0.0873223
0.012431
0.119222
0.232806
0.3531
0.480258
0.608683
0.719355
0.802848
0.862478
0.897649
0.910716
0.910695
0.907258
0.905201
0.904669
-0.32682
-0.31465
-0.269016
-0.194798
-0.103749
-0.00318691
0.104513
0.219144
0.340767
0.469749
0.600925
0.715578
0.804081
0.868409
0.906823
0.92163
0.921645
0.916304
0.910116
0.902444
-0.34501
-0.332608
-0.286365
-0.211561
-0.119918
-0.0187261
0.0896555
0.205047
0.327694
0.458122
0.591627
0.70994
0.803756
0.873576
0.915901
0.934105
0.936727
0.930641
0.919374
0.915036
-0.362472
-0.349856
-0.303144
-0.227882
-0.135842
-0.0341839
0.0746567
0.190492
0.313827
0.445243
0.580563
0.702008
0.801027
0.877182
0.922984
0.944271
0.948872
0.945125
0.906816
0.855311
-0.378935
-0.365612
-0.319207
-0.243692
-0.151626
-0.0497274
0.0594543
0.175585
0.299209
0.431152
0.567625
0.691468
0.794678