/*--------------------------------*- C++ -*----------------------------------*\
  =========                 |
  \\      /  F ield         | OpenFOAM: The Open Source CFD Toolbox
   \\    /   O peration     | Website:  https://openfoam.org
    \\  /    A nd           | Version:  9
     \\/     M anipulation  |
\*---------------------------------------------------------------------------*/
FoamFile
{
    format      ascii;
    class       volScalarField;
    location    "5";
    object      p;
}
// * * * * * * * * * * * * * * * * * * * * * * * * * * * * * * * * * * * * * //

dimensions      [0 2 -2 0 0 0 0];

internalField   nonuniform List<scalar> 
8800
(
0.5307
0.483269
0.445172
0.416886
0.396804
0.382798
0.373001
0.366213
0.361863
0.359938
0.360817
0.364279
0.370009
0.378329
0.390119
0.406934
0.430903
0.464134
0.506058
0.564669
0.360924
0.36897
0.377664
0.381873
0.381395
0.377425
0.371926
0.366578
0.362243
0.359401
0.35889
0.36108
0.364971
0.370066
0.375753
0.380812
0.383269
0.381581
0.37494
0.365333
0.339347
0.346085
0.351595
0.35549
0.357978
0.359073
0.358632
0.357233
0.355769
0.355077
0.355545
0.357035
0.358867
0.36009
0.359927
0.358163
0.355059
0.350384
0.344361
0.340698
0.340471
0.342816
0.346396
0.349494
0.351804
0.35285
0.353255
0.353067
0.352547
0.352218
0.352658
0.353537
0.354195
0.354277
0.353731
0.352165
0.349521
0.346084
0.342942
0.342008
0.341084
0.341539
0.342512
0.343666
0.344898
0.346194
0.347099
0.347558
0.347727
0.347866
0.348193
0.34853
0.348578
0.348153
0.347162
0.345967
0.344857
0.343775
0.343087
0.342904
0.33864
0.338873
0.33941
0.340074
0.340753
0.341387
0.341944
0.342399
0.342745
0.343056
0.343393
0.343628
0.343639
0.343415
0.34301
0.342474
0.341871
0.341287
0.340913
0.340826
0.335287
0.335382
0.335607
0.33595
0.33639
0.336908
0.337456
0.337985
0.338475
0.338944
0.339335
0.33954
0.339531
0.339339
0.339037
0.338706
0.338406
0.338166
0.338033
0.337994
0.331235
0.331292
0.331427
0.331631
0.331904
0.332252
0.332673
0.333157
0.333687
0.334252
0.334746
0.335052
0.33517
0.335155
0.335065
0.334944
0.334822
0.334717
0.334654
0.334631
0.32691
0.326947
0.327039
0.327188
0.327405
0.327704
0.328097
0.32859
0.329185
0.329867
0.3305
0.330935
0.331179
0.331286
0.331311
0.331292
0.331256
0.331219
0.331192
0.331178
0.322339
0.322362
0.322434
0.322558
0.322748
0.323028
0.323421
0.323953
0.324635
0.325466
0.326278
0.32688
0.327269
0.327503
0.327633
0.327698
0.327724
0.32773
0.327727
0.327718
0.317532
0.317554
0.31762
0.31774
0.317934
0.318229
0.318662
0.31927
0.320083
0.32111
0.322148
0.322949
0.323502
0.323863
0.324088
0.324222
0.324296
0.324332
0.324345
0.324339
0.312476
0.312495
0.312568
0.312701
0.312919
0.313259
0.313767
0.314494
0.315489
0.316772
0.318095
0.319143
0.319886
0.320383
0.320706
0.320906
0.321023
0.321086
0.321112
0.321108
0.307141
0.307161
0.307244
0.3074
0.30766
0.30807
0.308689
0.309586
0.310826
0.312442
0.314129
0.31548
0.316443
0.317102
0.317534
0.317806
0.317968
0.318058
0.318096
0.318093
0.301456
0.301479
0.301581
0.301772
0.302094
0.302604
0.303377
0.304501
0.306063
0.308108
0.310253
0.311978
0.313216
0.314066
0.314627
0.314982
0.315197
0.315317
0.315369
0.315365
0.295336
0.295364
0.295493
0.295734
0.29614
0.296784
0.297762
0.299187
0.301167
0.303763
0.306488
0.308682
0.31026
0.311344
0.312061
0.312517
0.312793
0.312947
0.313015
0.31301
0.288665
0.288701
0.288864
0.289173
0.289692
0.290515
0.291763
0.293579
0.296101
0.299402
0.30286
0.30564
0.30764
0.309015
0.309925
0.310504
0.310854
0.311051
0.311137
0.311132
0.281283
0.28133
0.281541
0.28194
0.282609
0.283668
0.285271
0.287598
0.290818
0.295018
0.299403
0.30292
0.305446
0.307181
0.308329
0.309059
0.309502
0.30975
0.309858
0.309852
0.272981
0.273042
0.273319
0.273839
0.274707
0.27608
0.278151
0.281144
0.285267
0.290613
0.296165
0.300603
0.303783
0.305966
0.30741
0.308328
0.308885
0.309197
0.309333
0.309325
0.263473
0.263556
0.263922
0.264606
0.265745
0.267537
0.270229
0.274096
0.279385
0.286191
0.29321
0.298793
0.302787
0.305527
0.307337
0.308489
0.309187
0.309578
0.309748
0.309737
0.252369
0.252483
0.252974
0.253886
0.255397
0.257761
0.261286
0.266308
0.273108
0.281767
0.290615
0.297617
0.302616
0.306045
0.308312
0.309755
0.31063
0.311121
0.311334
0.311319
0.239123
0.239285
0.239954
0.241192
0.243229
0.246388
0.25105
0.257611
0.266373
0.27737
0.288481
0.297222
0.303457
0.307739
0.310577
0.312387
0.313486
0.314103
0.314369
0.314351
0.222955
0.223193
0.224127
0.225847
0.228656
0.232956
0.239201
0.247834
0.259139
0.273061
0.286928
0.297775
0.305519
0.310859
0.314416
0.316696
0.318085
0.318863
0.319199
0.319176
0.202695
0.203053
0.2044
0.206891
0.210899
0.2169
0.225402
0.236844
0.251424
0.268942
0.286102
0.299452
0.309016
0.315669
0.320148
0.323047
0.324823
0.325817
0.326244
0.326217
0.176421
0.176967
0.179062
0.182928
0.188937
0.197581
0.20936
0.224605
0.243337
0.265174
0.286157
0.302403
0.314125
0.322402
0.328087
0.331844
0.334182
0.335495
0.336051
0.336019
0.140664
0.141626
0.145416
0.152024
0.161551
0.174401
0.190934
0.211236
0.235087
0.261939
0.287208
0.306694
0.320903
0.331163
0.338442
0.343455
0.346722
0.348633
0.349456
0.349405
0.0886208
0.0914993
0.0998586
0.112176
0.127903
0.147308
0.170462
0.19716
0.227008
0.259414
0.289274
0.312227
0.329181
0.341763
0.351087
0.357926
0.36282
0.366059
0.367692
0.367656
0.00831933
0.0225357
0.0420684
0.0646757
0.0898678
0.11807
0.149232
0.183145
0.219483
0.257789
0.292537
0.319295
0.339424
0.35487
0.366938
0.376511
0.384198
0.390277
0.394737
0.396044
-0.0767869
-0.0466941
-0.0152595
0.0178224
0.0527444
0.0896228
0.128566
0.169532
0.212359
0.256846
0.297092
0.328386
0.352383
0.371333
0.38669
0.399457
0.410248
0.419769
0.429054
0.430966
-0.136647
-0.104325
-0.0650061
-0.0237567
0.0191425
0.0636523
0.109669
0.157082
0.205798
0.255762
0.300665
0.335527
0.362286
0.383403
0.400409
0.414326
0.425874
0.435555
0.443519
0.445369
-0.181022
-0.146614
-0.103277
-0.057047
-0.00865896
0.0414758
0.0929949
0.145626
0.199192
0.253665
0.302319
0.339895
0.368506
0.390808
0.408493
0.422718
0.434334
0.443937
0.451778
0.453707
-0.213413
-0.178618
-0.132653
-0.0831416
-0.0310755
0.0230742
0.0787655
0.135498
0.192951
0.251071
0.302744
0.342433
0.37241
0.395537
0.413653
0.428043
0.439626
0.449072
0.456562
0.458487
-0.23838
-0.203385
-0.155956
-0.104119
-0.0492664
0.00793681
0.066767
0.126585
0.186965
0.247866
0.301955
0.343438
0.374624
0.398487
0.416996
0.431536
0.443128
0.452478
0.459734
0.461666
-0.258745
-0.223458
-0.174823
-0.121305
-0.0643965
-0.00488369
0.0563349
0.118444
0.180954
0.243935
0.300033
0.343222
0.375668
0.400365
0.419365
0.434143
0.445805
0.4551
0.462181
0.464129
-0.275979
-0.240202
-0.190499
-0.135568
-0.0770282
-0.0157545
0.0472192
0.110923
0.17482
0.239202
0.29699
0.341952
0.375891
0.40167
0.421362
0.436526
0.44836
0.457673
0.46465
0.466628
-0.290673
-0.254432
-0.203767
-0.147657
-0.0877424
-0.0250735
0.039169
0.103853
0.168426
0.233519
0.29271
0.339649
0.375493
0.402758
0.423455
0.439229
0.45137
0.460794
0.467708
0.4697
-0.303621
-0.266778
-0.215142
-0.157966
-0.0969015
-0.0331178
0.0320058
0.0971381
0.161675
0.226732
0.286994
0.336215
0.374558
0.403892
0.426052
0.442743
0.455384
0.465038
0.471971
0.473993
-0.314943
-0.277536
-0.225112
-0.166859
-0.104757
-0.0400516
0.0256382
0.0907365
0.154523
0.218679
0.27955
0.331416
0.373051
0.405263
0.429519
0.447562
0.460979
0.471029
0.478044
0.480099
-0.325189
-0.287115
-0.233808
-0.174569
-0.111502
-0.046012
0.0200168
0.0846658
0.146987
0.209208
0.270021
0.324883
0.370821
0.406989
0.43421
0.454191
0.468744
0.479409
0.486611
0.488726
-0.33449
-0.295758
-0.241488
-0.181296
-0.117278
-0.0510832
0.0151293
0.0789814
0.139124
0.198234
0.257995
0.316126
0.367588
0.409117
0.440449
0.463166
0.479332
0.490717
0.498395
0.500584
-0.343016
-0.303581
-0.248368
-0.187196
-0.122226
-0.0553282
0.0109808
0.0737816
0.13108
0.185724
0.243035
0.304496
0.362917
0.41161
0.448567
0.475042
0.493463
0.506094
0.514
0.516456
-0.350975
-0.310815
-0.254595
-0.192394
-0.126462
-0.0588281
0.0075785
0.0691714
0.123036
0.171742
0.224725
0.289224
0.356245
0.414377
0.4588
0.490308
0.511749
0.525944
0.53448
0.537021
-0.358585
-0.317472
-0.260279
-0.197017
-0.13007
-0.0616563
0.00491396
0.0652693
0.115231
0.156427
0.20269
0.269389
0.346857
0.417155
0.471337
0.509422
0.534873
0.551235
0.560672
0.563095
-0.365826
-0.323751
-0.265536
-0.201188
-0.133162
-0.063871
0.00296427
0.0621541
0.107932
0.140062
0.176627
0.243952
0.333908
0.419448
0.486244
0.532837
0.563349
0.582388
0.592805
0.594886
-0.372776
-0.329748
-0.27046
-0.204984
-0.135839
-0.065578
0.00170081
0.0598927
0.101392
0.123019
0.146369
0.211782
0.316034
0.420829
0.503428
0.56092
0.59785
0.619799
0.630848
0.632292
-0.379664
-0.335533
-0.275136
-0.208502
-0.138179
-0.0668581
0.00105604
0.0585404
0.0958533
0.105757
0.111801
0.171674
0.291846
0.420471
0.522571
0.593733
0.63909
0.664581
0.674571
0.673864
-0.386353
-0.34115
-0.279588
-0.211792
-0.140282
-0.0677884
0.0009541
0.0580713
0.0915334
0.0888209
0.0730117
0.122739
0.259222
0.418102
0.544419
0.629364
0.684748
0.7173
0.724959
0.716746
-0.393118
-0.346667
-0.283847
-0.214912
-0.142218
-0.0684648
0.00132548
0.058456
0.0885453
0.0725059
0.0291982
0.06052
0.214474
0.412126
0.566769
0.665999
0.730958
0.778012
0.794053
0.768152
-0.399879
-0.352024
-0.287934
-0.217983
-0.144124
-0.0689868
0.00206265
0.0596794
0.0869795
0.0567123
-0.0219856
-0.0236352
0.146848
0.402906
0.592099
0.700106
0.758545
0.79486
0.803988
0.762178
-0.406394
-0.357
-0.291682
-0.220986
-0.145936
-0.0693218
0.00308932
0.0617442
0.0871356
0.0426728
-0.0799235
-0.137394
0.0454002
0.381631
0.604906
0.706284
0.736939
0.736163
0.660145
0.603956
-0.411792
-0.361047
-0.29464
-0.223372
-0.147163
-0.0691815
0.00449243
0.0647178
0.08927
0.0310979
-0.144864
-0.296256
-0.119986
0.352563
0.617586
0.689549
0.688789
0.614945
0.503283
0.432593
-0.480696
-0.361644
-0.298148
-0.226085
-0.149025
-0.0697202
0.00630841
0.068912
0.0944756
0.0240383
-0.217323
-0.537069
-0.417537
0.205603
0.593419
0.617081
0.528884
0.417584
0.292457
0.223313
-0.382048
-0.363559
-0.30324
-0.230299
-0.151739
-0.0699676
0.00852247
0.074444
0.102211
0.0219251
-0.320348
-1.07788
-1.19938
-0.20016
0.245135
0.142836
0.0247645
-0.0561212
-0.156559
-0.0600263
-0.414334
-0.372278
-0.30857
-0.235227
-0.155166
-0.0716565
0.00991079
0.0794572
0.112468
0.0348071
-0.37274
-1.4935
-1.91656
-0.776348
-0.249616
-0.299294
-0.386878
-0.459555
-0.577597
-0.427622
-0.432181
-0.384157
-0.316979
-0.241861
-0.15992
-0.0742864
0.0103322
0.0839638
0.123473
0.0516025
-0.413503
-1.82482
-2.49838
-1.32831
-0.829439
-0.772734
-0.846827
-0.92423
-1.0868
-0.891088
-0.449649
-0.396521
-0.326296
-0.24865
-0.164642
-0.0766876
0.0108103
0.0888951
0.135841
0.0760255
-0.410638
-1.95312
-2.70416
-1.66344
-1.24789
-1.19768
-1.31915
-1.44941
-1.68592
-1.55431
-0.46539
-0.409158
-0.336188
-0.256068
-0.169821
-0.0794813
0.0110618
0.0939047
0.149291
0.108247
-0.339197
-1.79493
-2.4897
-1.74114
-1.47208
-1.50783
-1.70668
-1.95476
-2.30128
-2.61946
-0.480241
-0.422258
-0.34707
-0.264631
-0.17604
-0.0832227
0.0105718
0.0981352
0.162674
0.144709
-0.220585
-1.40127
-1.97982
-1.57645
-1.55228
-1.69411
-1.92043
-2.17413
-2.30543
-2.65755
-0.495546
-0.436249
-0.359239
-0.274587
-0.183697
-0.0882431
0.00880779
0.101305
0.175522
0.183181
-0.0744523
-0.889923
-1.34759
-1.29495
-1.49104
-1.8085
-2.03618
-2.06942
-2.12125
-2.20611
-0.511861
-0.451516
-0.372857
-0.286142
-0.192976
-0.0948685
0.00541531
0.102971
0.186466
0.221553
0.0766497
-0.387069
-0.750026
-0.96322
-1.3873
-1.91397
-2.31796
-2.07828
-2.05711
-2.18131
-0.529871
-0.468479
-0.388184
-0.299485
-0.204034
-0.10337
0.000198985
0.102387
0.194968
0.254771
0.207507
-8.26395e-05
-0.271456
-0.636322
-1.23226
-2.04423
-3.01621
-3.18652
-2.85873
-2.75849
-0.550285
-0.487595
-0.405585
-0.314845
-0.217175
-0.113911
-0.00730168
0.0991808
0.199755
0.281154
0.304277
0.24117
0.0404821
-0.341372
-0.990216
-2.0242
-3.37052
-3.85837
-3.45925
-3.16374
-0.573462
-0.509265
-0.425358
-0.332509
-0.232543
-0.126835
-0.017307
0.0933845
0.201127
0.298977
0.365641
0.373174
0.245647
-0.0497914
-0.548292
-1.28295
-2.03142
-2.31957
-2.1774
-2.01579
-0.599431
-0.533721
-0.447709
-0.352625
-0.25032
-0.142053
-0.0295966
0.0846209
0.198376
0.309001
0.40151
0.447412
0.394534
0.237843
-0.000481715
-0.283087
-0.481601
-0.557126
-0.517025
-0.489983
-0.628498
-0.561085
-0.472653
-0.375122
-0.27035
-0.159654
-0.0445344
0.0733802
0.19271
0.313187
0.421841
0.494228
0.504466
0.466611
0.405337
0.347779
0.3414
0.377066
0.406607
0.413896
-0.660291
-0.591037
-0.499975
-0.399945
-0.292627
-0.179233
-0.061194
0.0602057
0.184212
0.313005
0.434085
0.526872
0.581374
0.611624
0.637498
0.673746
0.723282
0.773724
0.804528
0.811153
-0.694144
-0.622897
-0.529218
-0.426396
-0.316326
-0.200221
-0.0793316
0.0454337
0.173956
0.310062
0.441033
0.549016
0.631206
0.697259
0.757972
0.818472
0.87707
0.926172
0.955183
0.96144
-0.728693
-0.655909
-0.559521
-0.453814
-0.340907
-0.221938
-0.0980812
0.0299218
0.16292
0.305037
0.444066
0.562083
0.658319
0.739085
0.809442
0.871764
0.925629
0.968646
0.995815
1.00228
-0.763167
-0.688562
-0.589489
-0.480873
-0.365048
-0.243292
-0.116621
0.0146068
0.151871
0.298945
0.443916
0.56729
0.669195
0.753869
0.824459
0.883119
0.931184
0.96937
0.995131
1.00175
-0.794993
-0.718776
-0.617428
-0.505916
-0.387395
-0.263095
-0.133761
0.000493605
0.141219
0.29264
0.440864
0.56647
0.669353
0.753462
0.821972
0.877518
0.922272
0.9579
0.981003
0.988123
-0.820642
-0.744265
-0.640725
-0.526827
-0.406143
-0.279731
-0.148244
-0.0117307
0.131435
0.285144
0.434558
0.559984
0.661598
0.743756
0.809988
0.863286
0.906119
0.940267
0.962492
0.969609
-0.836805
-0.761145
-0.65654
-0.541089
-0.418957
-0.291438
-0.158945
-0.0214942
0.122444
0.276448
0.424611
0.548082
0.64712
0.726808
0.790854
0.842324
0.883716
0.916703
0.938299
0.94555
-0.839347
-0.764805
-0.661198
-0.545503
-0.423495
-0.296321
-0.164623
-0.0282776
0.114244
0.266004
0.410722
0.530556
0.626067
0.702888
0.764735
0.81458
0.854834
0.886722
0.908066
0.915578
-0.822315
-0.751541
-0.65013
-0.536101
-0.416674
-0.292649
-0.164343
-0.0316653
0.1067
0.25339
0.392342
0.506607
0.597576
0.670925
0.730315
0.778451
0.817597
0.848512
0.869769
0.877517
-0.777527
-0.712822
-0.617272
-0.508884
-0.39551
-0.278024
-0.156649
-0.0310504
0.0999135
0.238341
0.368679
0.475126
0.559948
0.628679
0.684843
0.730778
0.768349
0.798635
0.82041
0.82814
-0.698978
-0.64357
-0.556958
-0.459518
-0.357116
-0.250811
-0.140481
-0.0257723
0.094173
0.22083
0.339346
0.435307
0.511464
0.573232
0.624169
0.666353
0.700924
0.728996
0.750671
0.758514
-0.580021
-0.539066
-0.466557
-0.385354
-0.299947
-0.209891
-0.115073
-0.0152605
0.0899978
0.201374
0.304889
0.387443
0.451774
0.502874
0.544273
0.57859
0.606787
0.628676
0.644006
0.649378
-0.399983
-0.38024
-0.337402
-0.284222
-0.223954
-0.156338
-0.0816426
0.000219213
0.0891599
0.185011
0.274653
0.345683
0.400071
0.442145
0.474609
0.499258
0.518334
0.534114
0.546273
0.549828
-0.223206
-0.217685
-0.200213
-0.174463
-0.139944
-0.0962547
-0.0429481
0.0198575
0.0918185
0.172147
0.248412
0.308574
0.353672
0.387129
0.41178
0.429932
0.442794
0.450852
0.455203
0.456265
-0.101973
-0.100607
-0.0949382
-0.0835908
-0.0658238
-0.0397979
-0.00422584
0.0415739
0.0974857
0.1626
0.225811
0.275693
0.312468
0.339071
0.357674
0.369885
0.377387
0.381825
0.384011
0.38433
-0.0284911
-0.0291104
-0.0282358
-0.0234034
-0.0132555
0.00333239
0.0276446
0.0608901
0.103656
0.155441
0.206769
0.247311
0.276724
0.297278
0.311096
0.320076
0.325535
0.328345
0.329316
0.3294
0.0133226
0.0130057
0.0133849
0.015988
0.0220859
0.0330832
0.0503255
0.0749399
0.10768
0.148438
0.189519
0.222071
0.245553
0.261878
0.272761
0.279579
0.283496
0.285483
0.286254
0.286361
0.0400694
0.0400505
0.0405691
0.0425772
0.0469195
0.0546368
0.0669883
0.0852333
0.11027
0.1422
0.174857
0.20082
0.219452
0.232221
0.240573
0.245773
0.2488
0.250363
0.25099
0.251086
0.0577624
0.0578298
0.0583303
0.0598852
0.0631276
0.0688726
0.0780962
0.0918503
0.111031
0.135922
0.161685
0.182238
0.196951
0.207006
0.213581
0.217663
0.220023
0.221242
0.221736
0.221812
0.0692671
0.0693747
0.06986
0.0711238
0.0736196
0.0779634
0.084938
0.0954208
0.110194
0.129589
0.149848
0.166067
0.177672
0.185583
0.190735
0.193927
0.195777
0.196738
0.197131
0.19719
0.0764125
0.0765172
0.0769349
0.0779475
0.0798937
0.0832386
0.0885824
0.0966271
0.108037
0.123141
0.139025
0.15178
0.160909
0.167125
0.171171
0.173676
0.175126
0.175878
0.176185
0.17623
0.0802704
0.080361
0.0807049
0.0815071
0.0830234
0.0856094
0.0897311
0.0959405
0.104779
0.116544
0.128979
0.13899
0.146158
0.151038
0.154211
0.156175
0.15731
0.157896
0.158138
0.158171
0.0816174
0.0816918
0.0819672
0.0825977
0.0837801
0.0857869
0.0889777
0.0937869
0.100647
0.109812
0.119536
0.12738
0.133002
0.136829
0.139315
0.140852
0.141738
0.142196
0.14238
0.142405
0.0810265
0.0810864
0.0813044
0.0817985
0.0827195
0.0842789
0.0867556
0.0904874
0.0958192
0.102961
0.110559
0.116698
0.1211
0.124095
0.126041
0.127243
0.127936
0.128291
0.128432
0.12845
0.0789365
0.0789838
0.0791547
0.0795403
0.0802577
0.0814699
0.083394
0.0862947
0.0904423
0.0960073
0.10194
0.106739
0.110181
0.112524
0.114046
0.114984
0.115524
0.115801
0.115909
0.115923
0.0756834
0.0757207
0.0758547
0.0761555
0.0767138
0.0776567
0.0791528
0.0814078
0.0846343
0.0889699
0.093598
0.0973464
0.100037
0.101867
0.103055
0.103787
0.104207
0.104421
0.104504
0.104515
0.0715281
0.0715571
0.0716613
0.0718952
0.0723295
0.0730628
0.074226
0.0759797
0.0784903
0.0818668
0.0854753
0.088399
0.0904974
0.0919254
0.0928515
0.093421
0.0937474
0.0939136
0.0939783
0.0939859
0.0666714
0.0666939
0.0667749
0.0669567
0.0672942
0.0678638
0.0687671
0.0701294
0.0720813
0.0747082
0.0775177
0.0797954
0.0814299
0.0825414
0.0832621
0.0837061
0.0839607
0.0840895
0.0841391
0.0841447
0.0612697
0.0612871
0.0613498
0.0614907
0.061752
0.0621935
0.0628947
0.0639527
0.0654681
0.067508
0.0696918
0.0714622
0.0727325
0.0735969
0.0741573
0.0745014
0.0746975
0.0747965
0.0748343
0.0748385
0.0554457
0.0554589
0.0555071
0.0556158
0.0558182
0.05616
0.056702
0.0575198
0.0586929
0.0602737
0.0619661
0.0633391
0.0643252
0.0649956
0.0654286
0.0656938
0.0658452
0.0659213
0.0659502
0.0659531
0.0492939
0.0493041
0.0493411
0.0494245
0.0495795
0.0498418
0.0502595
0.05089
0.0517943
0.0530134
0.0543187
0.0553778
0.0561379
0.0566536
0.0569875
0.0571927
0.0573091
0.0573672
0.057389
0.0573914
0.042891
0.0428985
0.0429261
0.042989
0.0431068
0.0433072
0.0436264
0.044109
0.0448012
0.0457342
0.0467335
0.0475432
0.0481233
0.0485176
0.0487726
0.0489289
0.049018
0.0490625
0.0490791
0.0490808
0.0362944
0.0362998
0.0363198
0.0363668
0.0364557
0.0366066
0.0368469
0.0372104
0.0377323
0.0384367
0.0391917
0.0398046
0.0402444
0.0405431
0.040736
0.0408529
0.0409186
0.040951
0.0409625
0.0409635
0.0295507
0.0295546
0.029569
0.029603
0.029668
0.0297794
0.0299572
0.0302259
0.0306118
0.0311327
0.0316911
0.0321436
0.0324673
0.0326857
0.0328256
0.0329115
0.0329601
0.0329837
0.0329923
0.032993
0.0226972
0.0226997
0.022709
0.0227327
0.0227788
0.0228575
0.0229828
0.0231729
0.0234468
0.0238161
0.024211
0.0245305
0.0247591
0.024914
0.025014
0.025074
0.0251073
0.0251233
0.0251283
0.0251285
0.0157651
0.0157664
0.0157731
0.0157887
0.0158181
0.0158685
0.0159495
0.016073
0.0162508
0.0164907
0.0167487
0.0169584
0.0171092
0.0172114
0.017276
0.0173142
0.0173343
0.0173428
0.017345
0.0173451
0.00878093
0.00878172
0.00878499
0.00879284
0.00880806
0.00883528
0.00887918
0.00894542
0.00904022
0.00916814
0.00930511
0.00941626
0.0094938
0.00954492
0.00957845
0.00959905
0.00961013
0.00961513
0.0096167
0.00961692
0.00175745
0.00175603
0.0017542
0.00175425
0.00175662
0.00176098
0.00176767
0.00177838
0.00179441
0.00181654
0.00184721
0.00187212
0.00189134
0.00190564
0.00191506
0.00192041
0.00192337
0.00192471
0.00192421
0.0019224
-1.09347
-0.750763
-0.381159
-0.0814471
0.157715
0.351481
0.514486
0.655068
0.733541
0.700986
-0.455814
-0.239078
-0.0205476
0.166525
0.324479
0.457384
0.566214
0.646244
0.684917
0.684527
-0.0583168
0.0756484
0.212449
0.334363
0.438961
0.526203
0.594407
0.641695
0.668952
0.675216
0.192931
0.28025
0.370492
0.449845
0.518274
0.575146
0.619717
0.651168
0.67169
0.679137
0.363352
0.419628
0.478171
0.532
0.579833
0.620836
0.653263
0.67614
0.690311
0.698223
0.484894
0.523022
0.565863
0.607249
0.643811
0.674112
0.697449
0.713702
0.725817
0.735989
0.576029
0.606742
0.642099
0.674932
0.704128
0.729696
0.751424
0.768505
0.780069
0.792521
0.650502
0.680812
0.715697
0.748357
0.77916
0.806387
0.828561
0.844822
0.854949
0.869152
0.735397
0.771851
0.811209
0.847236
0.878135
0.903665
0.924449
0.940315
0.950227
0.966133
0.848679
0.889398
0.930596
0.965318
0.995129
1.02002
1.03996
1.05474
1.06497
1.08217
0.99422
1.03383
1.07094
1.10265
1.12846
1.15039
1.16909
1.1843
1.1965
1.21427
1.16954
1.20216
1.22875
1.25123
1.27144
1.29037
1.30815
1.32446
1.3396
1.35759
1.35876
1.37617
1.3915
1.40789
1.42375
1.43822
1.45146
1.46549
1.48323
1.50328
1.54104
1.5505
1.56202
1.57287
1.58236
1.59204
1.60275
1.6141
1.62544
1.64082
1.74772
1.75153
1.73677
1.72224
1.716
1.72167
1.74028
1.77058
1.80262
1.82922
2.05475
1.91997
1.84321
1.80039
1.78289
1.78704
1.81421
1.87066
1.97353
2.19798
0.420984
0.419185
0.415282
0.407521
0.396146
0.384908
0.375531
0.368366
0.363251
0.360186
0.359647
0.361909
0.366259
0.372566
0.380959
0.391468
0.403133
0.413271
0.41855
0.421135
0.344185
0.350226
0.357683
0.363305
0.366759
0.367453
0.36574
0.362773
0.359808
0.357782
0.357453
0.359081
0.361951
0.365243
0.367874
0.36856
0.366529
0.361917
0.355517
0.348006
0.339014
0.340985
0.345736
0.350079
0.352832
0.354317
0.355078
0.354899
0.354116
0.353345
0.353318
0.354172
0.355347
0.356113
0.356009
0.354968
0.352985
0.349504
0.344699
0.341051
0.341514
0.341912
0.343522
0.345699
0.347727
0.34949
0.35052
0.350953
0.350917
0.350729
0.350847
0.351404
0.351901
0.351967
0.351407
0.350137
0.348287
0.346232
0.344235
0.343222
0.339936
0.340044
0.340508
0.34125
0.342018
0.342802
0.343558
0.344159
0.344553
0.344809
0.345095
0.345414
0.345539
0.345354
0.344877
0.34423
0.343535
0.342829
0.342212
0.341961
0.337108
0.337168
0.337427
0.337882
0.338442
0.339058
0.339665
0.340207
0.340666
0.341071
0.341459
0.341753
0.341852
0.34173
0.341412
0.340967
0.340482
0.340028
0.339685
0.339548
0.333298
0.333326
0.333436
0.333642
0.333927
0.334293
0.334734
0.335225
0.335736
0.33625
0.33674
0.337097
0.337242
0.33721
0.337064
0.336872
0.336679
0.336512
0.336391
0.336342
0.329106
0.329123
0.329201
0.329344
0.329551
0.329832
0.330193
0.330638
0.331161
0.331755
0.332364
0.332836
0.333103
0.33321
0.333212
0.333157
0.333082
0.333007
0.332948
0.33292
0.324653
0.324661
0.324715
0.32482
0.324984
0.325223
0.325557
0.326004
0.326575
0.327272
0.32803
0.32866
0.32907
0.329305
0.329424
0.329473
0.329483
0.329474
0.329459
0.329449
0.319966
0.319973
0.320016
0.320108
0.320259
0.320492
0.320835
0.321317
0.321969
0.322804
0.323755
0.324585
0.325158
0.325535
0.325766
0.325901
0.325973
0.326008
0.32602
0.326019
0.315035
0.315037
0.315084
0.31518
0.31534
0.315594
0.315979
0.316538
0.317314
0.318337
0.319536
0.32061
0.32138
0.321909
0.322253
0.322467
0.322595
0.322666
0.322699
0.322706
0.309848
0.309849
0.309898
0.310006
0.310191
0.310489
0.310947
0.311622
0.312573
0.313848
0.315364
0.316744
0.317759
0.318457
0.318923
0.319222
0.319404
0.319509
0.319562
0.319575
0.304347
0.304346
0.304405
0.304533
0.304758
0.305123
0.305687
0.306523
0.307712
0.309316
0.311238
0.313
0.314301
0.315212
0.315823
0.316217
0.316461
0.316603
0.316675
0.316695
0.298457
0.298455
0.298528
0.298688
0.298969
0.299426
0.300135
0.301188
0.302689
0.304719
0.307159
0.309403
0.311063
0.312228
0.313013
0.313522
0.313838
0.314022
0.314118
0.314144
0.292078
0.292076
0.292168
0.292372
0.292728
0.293309
0.29421
0.29555
0.297457
0.300038
0.303136
0.305985
0.308093
0.309574
0.310572
0.31122
0.311623
0.311859
0.311981
0.312016
0.285075
0.285072
0.28519
0.285452
0.28591
0.286655
0.28781
0.289524
0.291959
0.295246
0.299182
0.302791
0.305459
0.307332
0.308595
0.309415
0.309925
0.310224
0.310379
0.310422
0.277263
0.27726
0.277414
0.277754
0.278347
0.279311
0.2808
0.283004
0.286125
0.290318
0.295315
0.299882
0.303249
0.305609
0.3072
0.308232
0.308874
0.309252
0.309447
0.309501
0.2684
0.268396
0.2686
0.269045
0.269821
0.271076
0.273009
0.275858
0.27987
0.285226
0.291568
0.297332
0.301569
0.304536
0.306534
0.307831
0.308637
0.30911
0.309355
0.309423
0.258153
0.25815
0.258423
0.259014
0.26004
0.261691
0.264219
0.267922
0.273097
0.279945
0.287981
0.295237
0.300554
0.304272
0.306775
0.3084
0.30941
0.310004
0.31031
0.310394
0.246063
0.246062
0.246435
0.247235
0.24861
0.250807
0.254147
0.258995
0.265696
0.274455
0.284613
0.293713
0.300358
0.305004
0.308135
0.310169
0.311436
0.312181
0.312565
0.31267
0.231466
0.231471
0.231999
0.233112
0.234991
0.237966
0.242437
0.248841
0.257555
0.268754
0.281545
0.292896
0.301164
0.306952
0.310863
0.313413
0.315006
0.315946
0.316433
0.316565
0.213372
0.213394
0.214181
0.215786
0.21843
0.222548
0.228644
0.237201
0.24858
0.262871
0.27888
0.292936
0.303159
0.310348
0.315239
0.31845
0.320471
0.321675
0.322306
0.322478
0.190239
0.190317
0.191581
0.194005
0.197863
0.203756
0.212262
0.223837
0.238735
0.256885
0.276742
0.293975
0.306516
0.315412
0.321545
0.32563
0.328243
0.329831
0.330688
0.330927
0.15954
0.159801
0.162019
0.165912
0.171884
0.18071
0.192892
0.20869
0.228142
0.250976
0.275292
0.296137
0.311349
0.322294
0.33001
0.335296
0.33878
0.340974
0.342214
0.342583
0.116533
0.117308
0.121828
0.128847
0.138962
0.152841
0.170567
0.192087
0.217205
0.24548
0.274736
0.299515
0.317681
0.330998
0.340692
0.347631
0.352469
0.355713
0.357696
0.358285
0.0526351
0.0552106
0.0659087
0.0802223
0.0984545
0.120475
0.145965
0.174736
0.206482
0.240739
0.275184
0.304021
0.325278
0.341185
0.353192
0.362277
0.369127
0.374286
0.377859
0.37852
-0.0255628
-0.0195362
0.000537867
0.0268514
0.0556181
0.0869163
0.120764
0.157105
0.19573
0.236351
0.276616
0.310373
0.335693
0.355231
0.370635
0.382991
0.39306
0.401394
0.40676
0.408854
-0.104052
-0.0898918
-0.0591237
-0.0228437
0.0154533
0.0555439
0.0973547
0.14085
0.185976
0.232619
0.278452
0.316876
0.345877
0.36851
0.386638
0.401416
0.413562
0.423605
0.430948
0.434815
-0.156635
-0.141582
-0.10626
-0.0636975
-0.0186791
0.0281239
0.0764355
0.126048
0.1768
0.228598
0.279031
0.321093
0.352729
0.377259
0.396666
0.412211
0.424731
0.434852
0.442204
0.445955
-0.195364
-0.180155
-0.141435
-0.0951184
-0.0459169
0.0054987
0.0585915
0.112924
0.168176
0.224202
0.278428
0.323413
0.356995
0.382759
0.402897
0.418834
0.43152
0.441647
0.449059
0.452874
-0.223982
-0.208981
-0.168654
-0.119867
-0.0676459
-0.0128888
0.0437732
0.10173
0.160473
0.219783
0.276976
0.324284
0.359428
0.386178
0.406876
0.423079
0.435857
0.445955
0.453422
0.457273
-0.246811
-0.231777
-0.190427
-0.139883
-0.0854591
-0.0281405
0.031254
0.0919245
0.15326
0.215015
0.274539
0.323854
0.360458
0.388184
0.40947
0.425984
0.438893
0.449012
0.456552
0.460422
-0.265727
-0.25067
-0.208274
-0.156305
-0.100195
-0.0409514
0.0204966
0.0831809
0.14636
0.209821
0.271129
0.322279
0.360434
0.389308
0.411339
0.428289
0.441424
0.451626
0.459256
0.463148
-0.281863
-0.266608
-0.223289
-0.170083
-0.112568
-0.0517777
0.0112197
0.0753114
0.139627
0.204064
0.266635
0.31957
0.35954
0.389891
0.412965
0.430571
0.444078
0.454471
0.462187
0.466156
-0.295797
-0.280396
-0.236093
-0.181824
-0.123088
-0.06104
0.00313386
0.0681294
0.132946
0.197624
0.260895
0.315617
0.357819
0.390165
0.414721
0.433299
0.44738
0.458076
0.46594
0.469976
-0.308085
-0.292402
-0.247198
-0.191936
-0.132096
-0.0689826
-0.00392099
0.0615543
0.126259
0.190384
0.253685
0.310195
0.355194
0.390261
0.41692
0.436917
0.451864
0.46304
0.471156
0.475321
-0.31901
-0.303034
-0.256966
-0.200702
-0.139867
-0.0757937
-0.0100539
0.055548
0.119564
0.182278
0.244759
0.302964
0.35147
0.390209
0.419827
0.441866
0.458082
0.469963
0.478439
0.482732
-0.328952
-0.312552
-0.265655
-0.208378
-0.146574
-0.0816273
-0.0153386
0.0501232
0.112919
0.173293
0.233853
0.293464
0.346294
0.389947
0.423657
0.448585
0.466605
0.479505
0.488509
0.492998
-0.338005
-0.321223
-0.273367
-0.215156
-0.152375
-0.0865795
-0.0198211
0.0453202
0.106429
0.163479
0.220739
0.281153
0.339173
0.389295
0.428598
0.457509
0.478047
0.492395
0.502082
0.506808
-0.346434
-0.329254
-0.280403
-0.22119
-0.157405
-0.0907474
-0.0235337
0.04118
0.100242
0.152967
0.205215
0.265397
0.329466
0.387958
0.43476
0.469058
0.49302
0.509349
0.520003
0.524977
-0.354258
-0.33664
-0.286837
-0.22661
-0.16179
-0.0942196
-0.0265024
0.0377582
0.0945168
0.141986
0.187196
0.245489
0.316354
0.385535
0.44219
0.483698
0.512174
0.531046
0.542942
0.548327
-0.361756
-0.343611
-0.29281
-0.231525
-0.165639
-0.0970978
-0.0287837
0.0351102
0.0894316
0.130795
0.166688
0.220678
0.298871
0.381507
0.450837
0.501581
0.535979
0.558117
0.571576
0.577419
-0.368847
-0.350264
-0.298431
-0.23605
-0.169044
-0.099462
-0.0304511
0.0332439
0.0851696
0.11974
0.143816
0.190196
0.275788
0.375001
0.460343
0.522986
0.565117
0.591406
0.606744
0.612899
-0.375807
-0.356692
-0.303778
-0.24027
-0.172116
-0.101418
-0.0315599
0.0321283
0.0818684
0.109205
0.118816
0.153225
0.245862
0.364898
0.470546
0.548033
0.59954
0.631188
0.647964
0.653564
-0.38259
-0.362908
-0.308924
-0.244249
-0.174912
-0.103052
-0.0321971
0.0317497
0.0796159
0.0995943
0.0920369
0.108888
0.206902
0.350178
0.481323
0.576628
0.639364
0.678116
0.696056
0.697391
-0.389376
-0.369091
-0.313874
-0.248019
-0.17752
-0.104444
-0.0324585
0.0320325
0.0784688
0.0912512
0.0640245
0.0571606
0.156315
0.329627
0.491266
0.605788
0.680528
0.729908
0.755779
0.745972
-0.396163
-0.375268
-0.318654
-0.251633
-0.18003
-0.105687
-0.0324015
0.0329307
0.0784598
0.0841853
0.0339085
-0.0071793
0.0867878
0.297641
0.502276
0.63889
0.719817
0.77671
0.81443
0.819296
-0.402889
-0.381317
-0.323147
-0.255123
-0.182529
-0.10688
-0.0321311
0.0343567
0.0796266
0.0788926
0.00251179
-0.0884385
-0.0118677
0.247347
0.51183
0.661276
0.73219
0.767423
0.766796
0.696009
-0.409104
-0.386862
-0.327156
-0.25868
-0.185141
-0.108251
-0.0318313
0.0362302
0.0819738