/*--------------------------------*- C++ -*----------------------------------*\
  =========                 |
  \\      /  F ield         | OpenFOAM: The Open Source CFD Toolbox
   \\    /   O peration     | Website:  https://openfoam.org
    \\  /    A nd           | Version:  9
     \\/     M anipulation  |
\*---------------------------------------------------------------------------*/
FoamFile
{
    format      ascii;
    class       surfaceScalarField;
    location    "5";
    object      phi;
}
// * * * * * * * * * * * * * * * * * * * * * * * * * * * * * * * * * * * * * //

dimensions      [0 3 -1 0 0 0 0];

internalField   nonuniform List<scalar> 
17370
(
-0.0915586
0.096115
0.284454
-0.077723
0.0595849
0.364914
-0.0433396
0.0320967
0.427411
-0.0228627
0.0167638
0.505351
-0.0120447
0.00902042
0.602426
-0.00663928
0.00508223
0.720615
-0.00383012
0.00298437
0.863752
-0.00226503
0.00171676
1.036
-0.00116901
0.00070787
1.24296
-0.000279744
-2.49047e-05
1.4915
0.000350658
-0.000798204
1.49164
0.00124835
-0.00177706
1.24322
0.00230998
-0.0030128
1.03634
0.0038442
-0.00508678
0.864149
0.00664152
-0.00902564
0.721442
0.0120554
-0.0167801
0.603939
0.0228825
-0.0321174
0.508674
0.0433564
-0.059596
0.432408
0.07773
-0.096118
0.365164
0.0915641
0.197447
-0.127669
0.0897218
0.0379475
-0.364982
0.355304
-0.0690836
0.0787612
-0.447106
0.455589
-0.0757048
0.0672215
-0.520827
0.529421
-0.0584939
0.0499007
-0.612754
0.62021
-0.0424268
0.0349704
-0.727141
0.732721
-0.0289252
0.023345
-0.867499
0.871481
-0.0189917
0.0150101
-1.03828
1.04102
-0.0119504
0.00920959
-1.24434
1.24634
-0.00705952
0.00505878
-1.49247
1.49427
-0.00341888
0.00161906
-1.49236
1.49416
0.00021628
-0.00202243
-1.24377
1.24541
0.0037877
-0.00542789
-1.03732
1.03946
0.00744254
-0.00958165
-0.866041
0.869061
0.0122993
-0.0153198
-0.724644
0.72896
0.0192611
-0.0235775
-0.608988
0.615008
0.0291228
-0.0351425
-0.514889
0.522341
0.0425716
-0.0500232
-0.439967
0.448682
0.0585999
-0.0673147
-0.375319
0.378361
0.0757791
-0.0788212
-0.257464
0.226302
0.0691244
-0.0379628
-0.0721218
0.0646925
0.00742933
-0.0405763
0.0469131
-0.37588
0.369544
-0.0476012
0.0456821
-0.45421
0.456129
-0.0422161
0.0390685
-0.527293
0.530441
-0.0356221
0.0323804
-0.619731
0.622973
-0.0287499
0.0253792
-0.733173
0.736544
-0.0216308
0.0182588
-0.872534
0.875906
-0.014668
0.0115567
-1.04227
1.04539
-0.00827646
0.00538511
-1.24782
1.25071
-0.00236641
-0.000296204
-1.49657
1.49923
0.00297716
-0.00598055
-1.49672
1.49972
0.00882936
-0.0120369
-1.24906
1.25226
0.0151047
-0.0186532
-1.0443
1.04785
0.0220085
-0.0257281
-0.875526
0.879245
0.0290777
-0.032679
-0.737577
0.741179
0.0358947
-0.0393014
-0.625295
0.628702
0.0424128
-0.0458437
-0.535146
0.538577
0.0477306
-0.0470128
-0.458794
0.458076
0.0406493
-0.0245304
-0.339802
0.323683
0.00744382
-0.0720721
0.0646283
-0.0619114
0.0613871
0.000524318
-0.0119725
0.0188794
-0.362014
0.355107
-0.0247378
0.0286087
-0.454654
0.450783
-0.0310398
0.0319085
-0.531583
0.530715
-0.0315603
0.0304191
-0.624772
0.625914
-0.028509
0.026352
-0.73925
0.741407
-0.0235942
0.0207888
-0.879027
0.881833
-0.017479
0.0142982
-1.0486
1.05178
-0.0106528
0.00718446
-1.25396
1.25743
-0.00321535
-0.000643741
-1.50258
1.50644
0.00449781
-0.0084323
-1.50331
1.50725
0.0118431
-0.0154145
-1.25577
1.25935
0.0185218
-0.0217292
-1.05131
1.05451
0.0244351
-0.0270856
-0.882459
0.885109
0.0291414
-0.0309417
-0.743611
0.745412
0.0319991
-0.0322896
-0.630423
0.630713
0.031378
-0.0289051
-0.538962
0.536489
0.0249963
-0.0190882
-0.454141
0.448233
0.0121217
-0.00441489
-0.311576
0.30387
0.000551633
-0.0618271
0.0612754
-0.0614454
0.0613611
8.43234e-05
-0.00400944
0.00817022
-0.34958
0.345419
-0.0132558
0.0174784
-0.446219
0.441996
-0.0211045
0.0233059
-0.528743
0.526542
-0.0246129
0.0249446
-0.626121
0.62579
-0.024506
0.0234836
-0.743033
0.744055
-0.0217393
0.0196468
-0.884385
0.886477
-0.0168853
0.0140094
-1.05494
1.05781
-0.0105426
0.00712016
-1.26099
1.26441
-0.00303292
-0.00100589
-1.51049
1.51453
0.00500723
-0.00900488
-1.51131
1.5153
0.0123604
-0.0157316
-1.26291
1.26629
0.0184764
-0.0211116
-1.05754
1.06018
0.0230895
-0.024714
-0.887315
0.88894
0.025632
-0.025955
-0.746388
0.746711
0.0255107
-0.0240678
-0.629681
0.628238
0.0217433
-0.0179878
-0.532786
0.52903
0.0136538
-0.00845175
-0.442174
0.436972
0.00419445
-0.00112865
-0.299195
0.296129
0.000113076
-0.0613087
0.0611957
-0.0612359
0.061201
3.49243e-05
-0.00165669
0.00369386
-0.342421
0.340384
-0.00659839
0.0093426
-0.438462
0.435718
-0.01205
0.0140501
-0.524365
0.522365
-0.0156661
0.0166199
-0.625082
0.624128
-0.0170501
0.0168964
-0.744633
0.744787
-0.0161425
0.0149736
-0.888095
0.889264
-0.0131928
0.0111617
-1.06026
1.06229
-0.00851116
0.00573452
-1.26754
1.27031
-0.00225568
-0.00128019
-1.51841
1.52195
0.00478114
-0.00817994
-1.51908
1.52248
0.0108956
-0.0134594
-1.26929
1.27185
0.0153355
-0.0169134
-1.06228
1.06386
0.0179033
-0.0184679
-0.890034
0.890599
0.0184579
-0.0178568
-0.746556
0.745955
0.0167482
-0.0149591
-0.62655
0.624761
0.0128091
-0.0099519
-0.525636
0.522778
0.00708164
-0.00404786
-0.432868
0.429835
0.00189565
-0.000537381
-0.294047
0.292689
7.55041e-05
-0.0610333
0.0609578
-0.061199
0.0611788
2.01896e-05
-0.000736519
0.00162513
-0.339049
0.33816
-0.00296305
0.00432833
-0.433743
0.432378
-0.00581642
0.00706816
-0.520717
0.519466
-0.00825032
0.00909483
-0.623151
0.622307
-0.00970779
0.00994826
-0.744658
0.744418
-0.00982868
0.00934975
-0.890029
0.890508
-0.00840547
0.00715936
-1.06391
1.06516
-0.00537779
0.00339769
-1.2727
1.27468
-0.000901283
-0.00162937
-1.52499
1.52752
0.00412181
-0.00649907
-1.52538
1.52775
0.0083105
-0.00988169
-1.27392
1.27549
0.0109372
-0.011642
-1.06495
1.06565
0.0118934
-0.0117654
-0.890727
0.890599
0.0113028
-0.0104558
-0.745129
0.744282
0.00941278
-0.00803548
-0.623113
0.621736
0.00661884
-0.00496208
-0.520554
0.518897
0.00345311
-0.00196839
-0.427705
0.42622
0.000957333
-0.000306349
-0.291788
0.291137
5.53127e-05
-0.06092
0.0608647
-0.0611575
0.0611514
6.05733e-06
-0.000345434
0.000758274
-0.337553
0.33714
-0.00137853
0.00202839
-0.431436
0.430786
-0.00276935
0.00343079
-0.518547
0.517885
-0.00409737
0.00461085
-0.621634
0.62112
-0.00502881
0.00524803
-0.744167
0.743947
-0.00526997
0.00506089
-0.890814
0.891023
-0.00454697
0.00380267
-1.06611
1.06686
-0.00267275
0.00137002
-1.27629
1.27759
0.000290576
-0.00198779
-1.5296
1.5313
0.00364308
-0.00516222
-1.52967
1.53119
0.00623633
-0.00706598
-1.27664
1.27747
0.00755209
-0.00777753
-1.06608
1.0663
0.00771716
-0.00740041
-0.890344
0.890027
0.00691784
-0.00622322
-0.743502
0.742807
0.00547465
-0.00457595
-0.620622
0.619723
0.00371969
-0.00278049
-0.517661
0.516722
0.00196323
-0.00117436
-0.425155
0.424367
0.000621561
-0.000231728
-0.290638
0.290249
5.3864e-05
-0.0608033
0.0607494
-0.0611576
0.061173
-1.53299e-05
-8.39983e-05
0.000255976
-0.336867
0.336695
-0.000527914
0.000819118
-0.430344
0.430053
-0.00115777
0.00146635
-0.517423
0.517115
-0.00178492
0.00203634
-0.620748
0.620496
-0.00224511
0.00235165
-0.74378
0.743673
-0.00234726
0.0022069
-0.891182
0.891322
-0.0018747
0.00139211
-1.06745
1.06793
-0.000654665
-0.000202311
-1.27865
1.2795
0.00130209
-0.00241665
-1.53267
1.53379
0.00347359
-0.00439382
-1.53238
1.5333
0.00499599
-0.00539155
-1.27805
1.27845
0.00554941
-0.00552541
-1.06638
1.06636
0.00533807
-0.00498871
-0.889684
0.889335
0.00456938
-0.00403404
-0.742197
0.741661
0.00350275
-0.00290072
-0.618993
0.618391
0.00235258
-0.00177096
-0.515993
0.515412
0.00127492
-0.000795101
-0.423763
0.423283
0.000446288
-0.0001812
-0.289934
0.289669
4.68622e-05
-0.0607012
0.0606544
-0.0611969
0.0612283
-3.1348e-05
8.33859e-05
-5.32891e-05
-0.336599
0.336569
-2.76946e-05
0.00012347
-0.429872
0.429776
-0.000235834
0.00033503
-0.516923
0.516824
-0.000430748
0.000495984
-0.620346
0.620281
-0.000530265
0.000513827
-0.743629
0.743646
-0.00042544
0.000264137
-0.891466
0.891628
1.9393e-05
-0.000387081
-1.06834
1.06871
0.000915974
-0.00150853
-1.28021
1.2808
0.00225165
-0.00297725
-1.53469
1.53541
0.00362859
-0.00415083
-1.534
1.53452
0.00443485
-0.00455428
-1.2787
1.27882
0.0045434
-0.00438698
-1.06626
1.0661
0.00414512
-0.00379906
-0.888987
0.888641
0.00343267
-0.00299917
-0.741185
0.740752
0.00259073
-0.00214471
-0.617881
0.617435
0.00174891
-0.00133611
-0.514931
0.514518
0.000986205
-0.000643745
-0.422886
0.422543
0.000383717
-0.000169869
-0.289436
0.289222
4.88428e-05
-0.060607
0.0605582
-0.0612677
0.0613133
-4.56574e-05
0.000205295
-0.00025725
-0.336584
0.336636
0.000298413
-0.000332364
-0.429751
0.429785
0.00037247
-0.00041686
-0.516802
0.516847
0.000478798
-0.000552912
-0.62029
0.620364
0.00066022
-0.000789565
-0.74372
0.74385
0.000974767
-0.00119232
-0.891814
0.892032
0.00149259
-0.00182803
-1.06905
1.06939
0.00226314
-0.00271307
-1.28131
1.28176
0.00324026
-0.00371535
-1.536
1.53647
0.00409823
-0.00435148
-1.5349
1.53515
0.00444697
-0.00440953
-1.27884
1.2788
0.00424547
-0.00399112
-1.0659
1.06564
0.00370089
-0.00334071
-0.888291
0.887931
0.00298992
-0.00259624
-0.740345
0.739951
0.0022389
-0.0018586
-0.617031
0.616651
0.00152723
-0.00118532
-0.514149
0.513808
0.000895877
-0.000608249
-0.422236
0.421948
0.000380252
-0.000179113
-0.289018
0.288817
5.50394e-05
-0.0605068
0.0604518
-0.0613666
0.0614291
-6.2534e-05
0.000329062
-0.000460791
-0.33673
0.336862
0.000596578
-0.000723675
-0.429867
0.429994
0.00087408
-0.0010254
-0.516947
0.517098
0.00120907
-0.00139584
-0.620496
0.620683
0.00162422
-0.0018578
-0.744031
0.744265
0.00214464
-0.00243718
-0.892285
0.892577
0.00279261
-0.00314681
-1.06973
1.07008
0.00356074
-0.00394763
-1.28217
1.28256
0.00435486
-0.00467192
-1.53686
1.53718
0.00487198
-0.00492829
-1.5353
1.53535
0.00484669
-0.00466882
-1.2787
1.27853
0.00442739
-0.00409392
-1.06535
1.06501
0.00375184
-0.0033552
-0.887556
0.887159
0.00298604
-0.00258518
-0.739559
0.739159
0.00222967
-0.0018576
-0.61628
0.615908
0.00153694
-0.00120839
-0.513478
0.513149
0.000930209
-0.000650162
-0.421669
0.421389
0.000420177
-0.000206107
-0.288612
0.288398
6.58663e-05
-0.0603919
0.060326
-0.0615013
0.0615837
-8.238e-05
0.000455738
-0.000657594
-0.337028
0.33723
0.000880373
-0.00109439
-0.430165
0.430379
0.00134698
-0.00159723
-0.517299
0.517549
0.00189465
-0.00218881
-0.620923
0.621217
0.00253654
-0.00287767
-0.744551
0.744893
0.00327657
-0.00366161
-0.892914
0.893299
0.00410141
-0.00451117
-1.07046
1.07087
0.00495467
-0.00533402
-1.28293
1.28331
0.00568858
-0.00591399
-1.53744
1.53767
0.00599267
-0.00591222
-1.53534
1.53526
0.00571511
-0.00539443
-1.27827
1.27795
0.00504264
-0.00461073
-1.06463
1.0642
0.00419379
-0.00372841
-0.886732
0.886267
0.00330711
-0.00285869
-0.738739
0.73829
0.00246675
-0.00206069
-0.615524
0.615118
0.00171321
-0.00135862
-0.512812
0.512458
0.00105821
-0.000752764
-0.4211
0.420794
0.000495768
-0.000248475
-0.28817
0.287922
8.0993e-05
-0.060253
0.060172
-0.0616774
0.0617841
-0.000106669
0.000603412
-0.000881391
-0.337469
0.337747
0.00119522
-0.00149923
-0.430637
0.430941
0.00185814
-0.00221219
-0.51785
0.518204
0.00263014
-0.00303965
-0.621567
0.621977
0.00351778
-0.00397962
-0.745292
0.745754
0.00450924
-0.00500836
-0.893738
0.894237
0.00556192
-0.00605909
-1.07132
1.07182
0.00657285
-0.00698522
-1.28371
1.28412
0.00733349
-0.00750703
-1.53786
1.53804
0.00749513
-0.00729171
-1.53511
1.53491
0.00697558
-0.00652515
-1.27757
1.27712
0.00605412
-0.00550132
-1.06371
1.06316
0.00498231
-0.00441481
-0.885755
0.885187
0.00390857
-0.00337558
-0.737804
0.737271
0.0029134
-0.00243754
-0.614681
0.614205
0.00203202
-0.0016193
-0.512078
0.511665
0.00126945
-0.000911614
-0.420466
0.420108
0.000606386
-0.00030729
-0.287651
0.287352
0.000101164
-0.0600817
0.0599805
-0.0619053
0.0620432
-0.000137881
0.00078689
-0.00115506
-0.338068
0.338436
0.00157428
-0.00198156
-0.431294
0.431702
0.00246221
-0.00293538
-0.518615
0.519088
0.0034924
-0.00403604
-0.62245
0.622994
0.00466741
-0.00527311
-0.746284
0.746889
0.00596159
-0.00660312
-0.894803
0.895445
0.00730403
-0.00792167
-1.07237
1.07299
0.00854299
-0.00902254
-1.28456
1.28504
0.00939868
-0.00954585
-1.53819
1.53834
0.00945773
-0.0091334
-1.53465
1.53432
0.00868714
-0.00808569
-1.27659
1.27599
0.00747414
-0.00676903
-1.06254
1.06183
0.00611656
-0.00541038
-0.884556
0.883849
0.00478556
-0.00413126
-0.736682
0.736028
0.00356629
-0.00298618
-0.613682
0.613102
0.0024929
-0.00199132
-0.511212
0.51071
0.00156601
-0.00112978
-0.419714
0.419278
0.000755095
-0.000384616
-0.28702
0.28665
0.000127155
-0.0598672
0.05974
-0.0622
0.0623783
-0.000178312
0.00102016
-0.00149994
-0.338857
0.339336
0.00204792
-0.00258081
-0.432168
0.432701
0.00320966
-0.00382803
-0.51963
0.520248
0.00455483
-0.00526266
-0.623615
0.624323
0.00608255
-0.00686616
-0.747579
0.748363
0.00775262
-0.00857335
-0.896171
0.896991
0.00946284
-0.0102379
-1.07368
1.07445
0.0110057
-0.0115839
-1.28556
1.28614
0.0120152
-0.0121505
-1.53848
1.53862
0.011987
-0.0115289
-1.53393
1.53348
0.0109306
-0.0101456
-1.2753
1.27452
0.00935869
-0.00846069
-1.06104
1.06014
0.00763529
-0.00674687
-0.883058
0.88217
0.00596369
-0.00514638
-0.735298
0.73448
0.00444231
-0.00372089
-0.612456
0.611735
0.00310815
-0.00248551
-0.510152
0.50953
0.00195746
-0.00141497
-0.418792
0.41825
0.000947473
-0.000483355
-0.286235
0.285771
0.000159906
-0.0595975
0.0594376
-0.0625813
0.0628126
-0.000231297
0.00132193
-0.00194364
-0.339883
0.340504
0.00265419
-0.00334514
-0.433308
0.433999
0.00416031
-0.00496115
-0.520953
0.521753
0.00590137
-0.00681571
-0.625128
0.626042
0.00787267
-0.00888039
-0.749252
0.750259
0.0100165
-0.0110641
-0.897919
0.898966
0.0121931
-0.0131696
-1.07532
1.0763
0.0141266
-0.014835
-1.28678
1.28749
0.0153444
-0.0154739
-1.53875
1.53888
0.0152243
-0.0146051
-1.53294
1.53232
0.0138203
-0.0128052
-1.27362
1.27261
0.011797
-0.0106531
-1.05912
1.05798
0.00960645
-0.00848332
-0.881171
0.880048
0.00749554
-0.0064664
-0.733564
0.732535
0.00558102
-0.0046745
-0.610926
0.61002
0.00390516
-0.00312394
-0.508833
0.508052
0.00246159
-0.00178078
-0.417643
0.416962
0.00119321
-0.000608964
-0.285251
0.284667
0.000201417
-0.0592581
0.0590567
-0.0630765
0.0633778
-0.00030128
0.0017163
-0.0025213
-0.341212
0.342017
0.00344097
-0.00433487
-0.434785
0.435679
0.00538908
-0.0064236
-0.522664
0.523698
0.00763663
-0.00881447
-0.62708
0.628258
0.0101734
-0.0114659
-0.751401
0.752693
0.0129189
-0.0142536
-0.900149
0.901484
0.015685
-0.0169151
-1.0774
1.07863
0.0181096
-0.0189808
-1.28828
1.28915
0.019587
-0.019708
-1.53901
1.53913
0.0193493
-0.0185265
-1.53161
1.53078
0.0175056
-0.0161991
-1.27146
1.27015
0.0149098
-0.0134531
-1.05669
1.05523
0.0121243
-0.0107016
-0.878784
0.877361
0.00945263
-0.00815296
-0.731379
0.730079
0.00703581
-0.00589267
-0.609002
0.607859
0.00492281
-0.00393811
-0.507175
0.50619
0.00310315
-0.00224462
-0.416197
0.415339
0.00150346
-0.000766677
-0.284011
0.283274
0.000253254
-0.0588308
0.0585775
-0.0637231
0.0641181
-0.000395071
0.00223907
-0.00328398
-0.342933
0.343978
0.00447611
-0.0056337
-0.436695
0.437853
0.00699778
-0.00833449
-0.524874
0.52621
0.00989938
-0.0114162
-0.629595
0.631111
0.0131624
-0.0148188
-0.754157
0.755813
0.0166746
-0.018372
-0.902989
0.904687
0.0201827
-0.0217278
-1.08001
1.08155
0.0232132
-0.0242795
-1.29011
1.29118
0.0249948
-0.0250931
-1.53924
1.53934
0.0245867
-0.0234995
-1.52984
1.52875
0.0221766
-0.0204993
-1.26867
1.26699
0.0188534
-0.0170006
-1.05359
1.05174
0.0153147
-0.0135126
-0.87576
0.873958
0.0119326
-0.0102896
-0.728618
0.726975
0.00887814
-0.00743458
-0.606575
0.605131
0.00621031
-0.00496749
-0.505084
0.503841
0.00391363
-0.00282995
-0.414375
0.413291
0.00189442
-0.000964922
-0.282446
0.281517
0.00031818
-0.0582935
0.0579754
-0.0645738
0.0650967
-0.000522826
0.00294268
-0.00430678
-0.345168
0.346532
0.00585992
-0.00736561
-0.439169
0.440675
0.00913613
-0.0108672
-0.527731
0.529462
0.012889
-0.0148438
-0.632835
0.63479
0.0170877
-0.019209
-0.757689
0.75981
0.0215755
-0.0237287
-0.9066
0.908753
0.0260097
-0.0279393
-1.08328
1.08521
0.0297713
-0.0310606
-1.29235
1.29364
0.0318852
-0.0319296
-1.53941
1.53946
0.031217
-0.0297829
-1.5275
1.52607
0.028072
-0.0259238
-1.26509
1.26295
0.0238273
-0.021475
-1.04965
1.0473
0.019339
-0.0170592
-0.87193
0.869651
0.0150618
-0.0129863
-0.725127
0.723052
0.0112039
-0.00938106
-0.603509
0.601686
0.00783503
-0.00626528
-0.502445
0.500875
0.00493392
-0.00356488
-0.412074
0.410705
0.00238381
-0.00121208
-0.280473
0.279302
0.000398738
-0.0576193
0.0572206
-0.065706
0.0664081
-0.000702076
0.00391268
-0.00571276
-0.348085
0.349885
0.00775537
-0.00972798
-0.442386
0.444359
0.0120347
-0.0142813
-0.531437
0.533683
0.0168955
-0.0194159
-0.637017
0.639537
0.0222988
-0.025013
-0.762214
0.764929
0.028024
-0.0307437
-0.911175
0.913894
0.0335983
-0.0359839
-1.08736
1.08974
0.0382112
-0.0397369
-1.29505
1.29657
0.0406479
-0.0405807
-1.53946
1.53939
0.039576
-0.0376848
-1.52442
1.52253
0.0354776
-0.032735
-1.26052
1.25777
0.0300735
-0.0270974
-1.04465
1.04167
0.0244002
-0.0215243
-0.867087
0.864211
0.0190062
-0.0163899
-0.720718
0.718102
0.0141431
-0.0118444
-0.599638
0.597339
0.0098935
-0.00791096
-0.499113
0.497131
0.00622789
-0.00449627
-0.409169
0.407438
0.00300324
-0.00152455
-0.277987
0.276508
0.000500553
-0.056774
0.0562735
-0.0672336
0.0682053
-0.00097169
0.00531876
-0.00773887
-0.351915
0.354335
0.0104599
-0.0130592
-0.446598
0.449197
0.0160647
-0.0189755
-0.536271
0.539182
0.0223493
-0.0255948
-0.642432
0.645678
0.0292952
-0.0327617
-0.768008
0.771475
0.0365775
-0.0399893
-0.91694
0.920352
0.043522
-0.0464248
-1.09237
1.09528
0.0490715
-0.0508156
-1.29821
1.29996
0.0517486
-0.0514726
-1.53923
1.53896
0.050054
-0.0475645
-1.52036
1.51787
0.0447298
-0.0412479
-1.25468
1.2512
0.0378903
-0.0341466
-1.03833
1.03458
0.0307593
-0.0271494
-0.86098
0.85737
0.0239892
-0.0207053
-0.715159
0.711875
0.0178835
-0.0149933
-0.594754
0.591864
0.0125355
-0.0100311
-0.49491
0.492405
0.00789803
-0.00569814
-0.405504
0.403304
0.00380145
-0.00192724
-0.274852
0.272978
0.000632666
-0.0557142
0.0550815
-0.0693343
0.0707523
-0.00141805
0.00751415
-0.0108403
-0.356998
0.360324
0.0144866
-0.017891
-0.452179
0.455584
0.0217654
-0.0255072
-0.542636
0.546378
0.0298453
-0.0340232
-0.649467
0.653645
0.0387766
-0.0431978
-0.775402
0.779823
0.0480061
-0.0522373
-0.92413
0.928361
0.0565323
-0.059975
-1.09843
1.10187
0.0630094
-0.0648956
-1.30177
1.30366
0.0657222
-0.065085
-1.53851
1.53788
0.0630872
-0.0598265
-1.51501
1.51175
0.056213
-0.0518339
-1.24728
1.24291
0.0476386
-0.0429749
-1.03039
1.02573
0.0387597
-0.0342676
-0.853314
0.848822
0.0303338
-0.0262425
-0.708165
0.704074
0.0227231
-0.0191118
-0.588596
0.584984
0.0160296
-0.0128709
-0.489604
0.486445
0.0101583
-0.00733763
-0.400879
0.398059
0.00489523
-0.0024834
-0.270896
0.268485
0.000819903
-0.0543844
0.0535645
-0.0723162
0.0745305
-0.00221423
0.0111941
-0.0157973
-0.363891
0.368495
0.020608
-0.0249804
-0.459728
0.4641
0.0299078
-0.0347114
-0.551097
0.555901
0.0403313
-0.0457529
-0.658596
0.664017
0.0518796
-0.0574898
-0.784742
0.790352
0.0634597
-0.0685818
-0.932914
0.938036
0.0736321
-0.0775388
-1.10547
1.10938
0.0808145
-0.0826653
-1.3055
1.30735
0.0831574
-0.081933
-1.53694
1.53572
0.0791407
-0.0749076
-1.50801
1.50378
0.0703556
-0.0649238
-1.238
1.23257
0.0597592
-0.0540353
-1.02052
1.0148
0.0488659
-0.0433538
-0.843767
0.838255
0.0385217
-0.0334896
-0.699402
0.69437
0.0291541
-0.0246973
-0.580828
0.576371
0.0208753
-0.0169232
-0.482885
0.478933
0.0134751
-0.00981285
-0.395029
0.391366
0.00658071
-0.00335511
-0.265899
0.262673
0.00112167
-0.0527095
0.0515878
-0.0767963
0.0805482
-0.00375194
0.0178576
-0.0242241
-0.373596
0.379963
0.0304818
-0.0360789
-0.470151
0.475748
0.0424519
-0.0487578
-0.562363
0.568669
0.0561683
-0.0632099
-0.670322
0.677364
0.070959
-0.0778231
-0.796296
0.80316
0.0848749
-0.0907089
-0.943264
0.949098
0.0962338
-0.100298
-1.11321
1.11727
0.10344
-0.104904
-1.30892
1.31038
0.104674
-0.102531
-1.53399
1.53184
0.0986679
-0.0932349
-1.49892
1.49348
0.0875912
-0.0809761
-1.22652
1.2199
0.0747474
-0.0678746
-1.00845
1.00158
0.0616717
-0.0550493
-0.832047
0.825425
0.0492319
-0.0431581
-0.688529
0.682456
0.0379112
-0.0325031
-0.571054
0.565646
0.0278374
-0.0229605
-0.474324
0.469447
0.0186077
-0.0137911
-0.387549
0.382733
0.00937607
-0.0048235
-0.259521
0.254968
0.00161868
-0.0505575
0.0489389
-0.0840726
0.0914025
-0.00732991
0.0319161
-0.0409381
-0.388003
0.397025
0.048918
-0.0560465
-0.484668
0.491797
0.064401
-0.0726457
-0.577147
0.585391
0.082062
-0.0906123
-0.68497
0.69352
0.0995861
-0.107171
-0.809949
0.817534
0.114639
-0.120534
-0.954664
0.960559
0.125817
-0.129389
-1.12089
1.12446
0.13173
-0.132223
-1.31122
1.31171
0.130719
-0.12721
-1.52892
1.52541
0.121931
-0.115055
-1.48726
1.48038
0.108172
-0.100284
-1.21259
1.2047
0.092953
-0.0849251
-0.994019
0.985991
0.0776984
-0.0699794
-0.818017
0.810298
0.0631803
-0.056056
-0.675347
0.668223
0.04987
-0.0434529
-0.558955
0.552538
0.0378763
-0.0320006
-0.463421
0.457545
0.0265885
-0.020158
-0.377796
0.371365
0.0137795
-0.00695316
-0.250932
0.244106
0.00223164
-0.047645
0.0454134
-0.0989367
0.101511
-0.00257429
0.0187265
-0.0269965
-0.409677
0.417947
0.0351348
-0.0430964
-0.504131
0.512093
0.0527406
-0.0626407
-0.59531
0.60521
0.0733961
-0.082943
-0.701772
0.711319
0.0935218
-0.102857
-0.824405
0.833739
0.112522
-0.120791
-0.965603
0.973871
0.128993
-0.13555
-1.12706
1.13362
0.141394
-0.145235
-1.31115
1.31499
0.147348
-0.146873
-1.52081
1.52033
0.1437
-0.138191
-1.47256
1.46705
0.131627
-0.123207
-1.19608
1.18766
0.114897
-0.104826
-0.977308
0.967236
0.0954686
-0.0850393
-0.801853
0.791424
0.0755854
-0.0654158
-0.660053
0.649883
0.0561416
-0.0465776
-0.544659
0.535095
0.0384303
-0.0295272
-0.45008
0.441177
0.0215455
-0.0130782
-0.364687
0.35622
0.00631331
-0.00151149
-0.237913
0.233111
-0.000293919
-0.0432222
0.0435161
-0.108571
0.10334
0.00523106
-0.00501486
-0.000302986
-0.429665
0.434983
0.00788704
-0.0151057
-0.523382
0.530601
0.0240619
-0.0324669
-0.615129
0.623534
0.0419538
-0.0505888
-0.720837
0.729472
0.0597791
-0.0680805
-0.842594
0.850896
0.076676
-0.0837449
-0.981829
0.988898
0.0909487
-0.0964126
-1.14004
1.1455
0.101255
-0.104219
-1.31869
1.32166
0.105302
-0.104222
-1.51936
1.51828
0.100693
-0.0951416
-1.46116
1.4556
0.0886327
-0.0805853
-1.17923
1.17118
0.0728594
-0.0639961
-0.957414
0.94855
0.0556863
-0.046432
-0.780917
0.771663
0.0381537
-0.0296604
-0.638761
0.630268
0.0224492
-0.0150818
-0.523794
0.516426
0.00888225
-0.00287023
-0.42978
0.423768
-0.00176649
0.00559321
-0.345572
0.341746
-0.0070208
0.00562464
-0.225361
0.226757
-0.00271959
-0.0417325
0.0444521
-0.104932
0.100461
0.00447062
-0.0100958
0.007526
-0.444168
0.446738
-0.00263987
-0.00295992
-0.539841
0.545441
0.00993166
-0.0167966
-0.632027
0.638892
0.0245319
-0.0316084
-0.737497
0.744573
0.0393457
-0.0462094
-0.858389
0.865253
0.0531237
-0.0591726
-0.995699
1.00175
0.065206
-0.0699069
-1.15057
1.15527
0.0737231
-0.0759022
-1.32414
1.32632
0.0766862
-0.0754287
-1.51689
1.51563
0.0720634
-0.0670511
-1.45002
1.44501
0.0614033
-0.0547823
-1.1637
1.15708
0.0482389
-0.0411403
-0.940179
0.93308
0.034657
-0.0276183
-0.763527
0.756488
0.021661
-0.0155922
-0.622203
0.616134
0.0106859
-0.00570481
-0.508358
0.503377
0.0019597
0.0013327
-0.415965
0.412673
-0.00374334
0.00541128
-0.335036
0.333368
-0.00537558
0.00351482
-0.221526
0.223387
-0.00165638
-0.0434738
0.0451302
-0.101298
0.0977082
0.00358982
-0.010145
0.00923505
-0.453862
0.454772
-0.00607336
0.00167744
-0.552228
0.556624
0.00395725
-0.00925518
-0.645318
0.650616
0.0153938
-0.0210545
-0.751225
0.756886
0.0272355
-0.0327593
-0.871535
0.877059
0.0386958
-0.0435447
-1.00729
1.01214
0.0485857
-0.0521054
-1.15955
1.16307
0.0552479
-0.0569987
-1.32838
1.33013
0.057441
-0.0559936
-1.51426
1.51281
0.0531512
-0.0490388
-1.44005
1.43594
0.0444098
-0.038791
-1.15091
1.14529
0.0336225
-0.0281402
-0.926465
0.920983
0.0230611
-0.017915
-0.750233
0.745087
0.013272
-0.00878757
-0.610177
0.605692
0.00515192
-0.00178287
-0.497922
0.494553
-0.000642081
0.00277235
-0.407182
0.405051
-0.00426036
0.00487591
-0.328256
0.32764
-0.00467166
0.0030334
-0.218944
0.220582
-0.00138706
-0.0438347
0.0452217
-0.0989529
0.0963958
0.00255703
-0.00821628
0.00828681
-0.460473
0.460402
-0.00589515
0.0026487
-0.562045
0.565291
0.0015498
-0.00596499
-0.655802
0.660217
0.0107361
-0.015392
-0.762032
0.766688
0.0203796
-0.0248525
-0.882082
0.886555
0.0296107
-0.0336674
-1.01676
1.02082
0.0376565
-0.0407278
-1.1664
1.16947
0.0432625
-0.0446184
-1.3316
1.33295
0.0448644
-0.0435077
-1.51144
1.51009
0.0410421
-0.0374103
-1.43164
1.42801
0.0335667
-0.0290883
-1.14017
1.1357
0.0249357
-0.0204435
-0.915786
0.911294
0.0164888
-0.0123937
-0.740207
0.736112
0.00888595
-0.00538742
-0.601333
0.597835
0.0026312
-9.52219e-05
-0.490434
0.487898
-0.00187284
0.00344188
-0.401006
0.399437
-0.00423257
0.00467221
-0.32362
0.323181
-0.00441164
0.00264164
-0.216612
0.218382
-0.00121599
-0.0440002
0.0452162
-0.0979118
0.0958724
0.00203941
-0.00660606
0.00661461
-0.465274
0.465265
-0.005104
0.00238516
-0.569141
0.57186
0.00136709
-0.00485065
-0.664084
0.667568
0.00866844
-0.0124535
-0.77073
0.774515
0.0166049
-0.0203519
-0.890658
0.894405
0.0244506
-0.0277411
-1.02452
1.02781
0.031068
-0.0336096
-1.17219
1.17473
0.0356113
-0.0366106
-1.33405
1.33505
0.0366178
-0.0355982
-1.50876
1.50774
0.0333278
-0.0302954
-1.42428
1.42125
0.0269908
-0.0231862
-1.13144
1.12763
0.0199048
-0.0160525
-0.907074
0.903222
0.0127415
-0.00947031
-0.732259
0.728988
0.00660795
-0.00375562
-0.59453
0.591678
0.00147208
0.000784274
-0.484733
0.482477
-0.00220009
0.00339523
-0.396208
0.395013
-0.00419051
0.00440695
-0.319776
0.319559
-0.00398914
0.00244227
-0.214871
0.216418
-0.00108003
-0.0440749
0.0451549
-0.0975184
0.0958899
0.00162849
-0.00523805
0.00524038
-0.469338
0.469336
-0.00363968
0.00149194
-0.575236
0.577383
0.00178384
-0.00478746
-0.670856
0.67386
0.0083129
-0.0113867
-0.77805
0.781124
0.0148178
-0.0179237
-0.898087
0.901193
0.0216092
-0.0243629
-1.03104
1.03379
0.0270317
-0.0292165
-1.17701
1.17919
0.0311627
-0.0318496
-1.33598
1.33667
0.0317558
-0.0306324
-1.50638
1.50525
0.0287746
-0.0258083
-1.4182
1.41524
0.0230348
-0.0198501
-1.12394
1.12076
0.0169173
-0.0137807
-0.899682
0.896545
0.0109084
-0.00794183
-0.725697
0.72273
0.00571055
-0.00318204
-0.588827
0.586299
0.00109424
0.000726014
-0.47986
0.478039
-0.00209438
0.00329138
-0.392401
0.391204
-0.00386909
0.00399828
-0.316793
0.316664
-0.00357295
0.00218797
-0.213425
0.21481
-0.000980091
-0.0441041
0.0450842
-0.0976013
0.0962222
0.0013791
-0.00411886
0.0040908
-0.472982
0.47301
-0.00234544
0.000230943
-0.58048
0.582595
0.00268107
-0.0052852
-0.676732
0.679336
0.00817783
-0.0111029
-0.784247
0.787172
0.0141531
-0.0173229
-0.904101
0.907271
0.0202329
-0.0226878
-1.03655
1.039
0.0252882
-0.0270434
-1.18115
1.1829
0.028271
-0.0290829
-1.33713
1.33794
0.0288597
-0.0277588
-1.5041
1.503
0.0258904
-0.0233719
-1.41253
1.41001
0.0208692
-0.0180075
-1.11744
1.11458
0.0154639
-0.012662
-0.893475
0.890673
0.0101296
-0.00764579
-0.719971
0.717487
0.00538706
-0.00319347
-0.583758
0.581565
0.00141525
0.000412012
-0.47582
0.473992
-0.00178131
0.0026874
-0.38888
0.387974
-0.00329219
0.00351835
-0.314152
0.313926
-0.0032115
0.0019506
-0.212211
0.213472
-0.000888796
-0.0441608
0.0450496
-0.0980902
0.0968361
0.00125409
-0.00296152
0.00266005
-0.476515
0.476816
-0.00100594
-0.0011051
-0.5853
0.587411
0.00372011
-0.00624933
-0.682107
0.684636
0.0090301
-0.0116105
-0.789981
0.792561
0.0147689
-0.017177
-0.909883
0.912291
0.0199785
-0.0221484
-1.04151
1.04368
0.0244479
-0.0261478
-1.18449
1.18619
0.0273196
-0.0275708
-1.33834
1.33859
0.0272394
-0.0261266
-1.50166
1.50055
0.0245343
-0.0220595
-1.40737
1.40489
0.0198164
-0.0172187
-1.11191
1.10932
0.0149566
-0.0123645
-0.887815
0.885223
0.0101582
-0.0077852
-0.714926
0.712553
0.00571029
-0.00361371
-0.579308
0.577211
0.00182452
-0.000279787
-0.471939
0.470394
-0.00112424
0.0020999
-0.385698
0.384722
-0.00284614
0.00308018
-0.311662
0.311428
-0.00278817
0.0017879
-0.21103
0.21203
-0.000756707
-0.0441817
0.0449384
-0.0987077
0.0977536
0.000954106
-0.00196461
0.00121123
-0.480219
0.480973
0.000354428
-0.0024888
-0.589551
0.591686
0.00480974
-0.00727434
-0.687098
0.689563
0.0099613
-0.0127039
-0.795083
0.797826
0.0153213
-0.0178644
-0.914859
0.917402
0.0205652
-0.0224346
-1.04613
1.048
0.0246227
-0.0260191
-1.18752
1.18892
0.0268674
-0.0271914
-1.33898
1.3393
0.0267752
-0.0254107
-1.49923
1.49786
0.0236123
-0.0214789
-1.40252
1.40038
0.0195509
-0.0171525
-1.10668
1.10428
0.0150346
-0.0128743
-0.88271
0.88055
0.0105233
-0.00846808
-0.710091
0.708036
0.00652927
-0.00445275
-0.575259
0.573183
0.00285479
-0.00120263
-0.468284
0.466632
-0.000129708
0.00135928
-0.382827
0.381598
-0.00207181
0.00242092
-0.3093
0.308951
-0.00239996
0.00156981
-0.209899
0.210729
-0.000663251
-0.044087
0.0447502
-0.099631
0.0988465
0.000784488
-0.00113033
0.000434649
-0.48406
0.484756
0.00178363
-0.00366283
-0.594008
0.595887
0.00615776
-0.00857377
-0.691774
0.694191
0.0112029
-0.0136452
-0.800327
0.802769
0.0164188
-0.0186748
-0.919919
0.922175
0.0212813
-0.0234469
-1.05016
1.05232
0.0251084
-0.0265425
-1.19014
1.19157
0.0273612
-0.0272712
-1.33923
1.33914
0.0265581
-0.0252853
-1.49638
1.49511
0.0233618
-0.0214379
-1.39802
1.39609
0.0195113
-0.0174623
-1.10203
1.09998
0.015707
-0.0136939
-0.878192
0.876179
0.0116909
-0.00971156
-0.705684
0.703705
0.0078717
-0.00578658
-0.571116
0.569031
0.00408751
-0.00248393
-0.464721
0.463118
0.000937788
0.000360703
-0.379753
0.378454
-0.00124951
0.00178148
-0.30684
0.306308
-0.00184201
0.00121752
-0.208794
0.209418
-0.000491088
-0.0439426
0.0444336
-0.100776
0.100191
0.000584289
-0.000193012
-0.000839113
-0.487902
0.488934
0.00287075
-0.00495913
-0.598181
0.600269
0.00745237
-0.00981535
-0.696402
0.698765
0.0126242
-0.0150122
-0.805253
0.807641
0.0177124
-0.0201066
-0.924849
0.927244
0.0225933
-0.0246323
-1.05422
1.05626
0.0263045
-0.027483
-1.19268
1.19385
0.0280319
-0.028085
-1.33895
1.339
0.0270228
-0.0252635
-1.49335
1.49159
0.0233168
-0.0212376
-1.39392
1.39184
0.0196723
-0.0181298