/*--------------------------------*- C++ -*----------------------------------*\
  =========                 |
  \\      /  F ield         | OpenFOAM: The Open Source CFD Toolbox
   \\    /   O peration     | Website:  https://openfoam.org
    \\  /    A nd           | Version:  9
     \\/     M anipulation  |
\*---------------------------------------------------------------------------*/
FoamFile
{
    format      ascii;
    class       volVectorField;
    location    "5";
    object      U;
}
// * * * * * * * * * * * * * * * * * * * * * * * * * * * * * * * * * * * * * //

dimensions      [0 1 -1 0 0 0 0];

internalField   nonuniform List<vector> 
8800
(
(0.979349 -0.0913852 0)
(1.00172 -0.0589133 0)
(0.999744 -0.0325289 0)
(1.00056 -0.016991 0)
(0.999952 -0.00910378 0)
(0.999758 -0.0050897 0)
(0.999973 -0.00296698 0)
(1.00011 -0.00174583 0)
(1.00018 -0.000819627 0)
(1.00004 -0.000101318 0)
(1.00015 0.000487525 0)
(1.00016 0.00132892 0)
(1.00004 0.00232409 0)
(0.999875 0.00387733 0)
(0.999731 0.0067795 0)
(1.00028 0.0124017 0)
(1.00053 0.0235512 0)
(0.998512 0.0432543 0)
(1.00654 0.0792739 0)
(0.774979 0.0479149 0)
(0.362334 -0.0140381 0)
(1.04885 -0.0697276 0)
(1.09064 -0.0623137 0)
(1.04905 -0.0461283 0)
(1.02374 -0.0327393 0)
(1.01078 -0.0220282 0)
(1.0049 -0.0144092 0)
(1.00206 -0.00903064 0)
(1.00096 -0.00520031 0)
(1.0009 -0.0021861 0)
(1.00103 0.00098201 0)
(1.00079 0.00395944 0)
(1.00134 0.00731839 0)
(1.00315 0.0117497 0)
(1.00735 0.0181371 0)
(1.01609 0.0271434 0)
(1.03454 0.0394462 0)
(1.0685 0.0535422 0)
(1.09718 0.0679328 0)
(0.84826 0.0540697 0)
(0.232477 -0.000822812 0)
(1.07902 -0.0397233 0)
(1.09923 -0.0406731 0)
(1.06436 -0.0349587 0)
(1.04042 -0.0293283 0)
(1.02472 -0.0232525 0)
(1.01508 -0.0170732 0)
(1.00969 -0.0111893 0)
(1.00684 -0.00581079 0)
(1.00549 -0.000852905 0)
(1.00597 0.0038067 0)
(1.00798 0.00889116 0)
(1.01184 0.0144173 0)
(1.01905 0.0204613 0)
(1.03156 0.0265696 0)
(1.05087 0.032356 0)
(1.08037 0.0378993 0)
(1.10672 0.041885 0)
(0.956344 0.0322097 0)
(0.232285 0.000828408 0)
(0.212518 0.000235575 0)
(1.03304 -0.0139771 0)
(1.08795 -0.0235675 0)
(1.06337 -0.0275016 0)
(1.04258 -0.0268818 0)
(1.02916 -0.0237528 0)
(1.01988 -0.0191535 0)
(1.01381 -0.0136769 0)
(1.01026 -0.00765616 0)
(1.00864 -0.00109104 0)
(1.00913 0.0055402 0)
(1.01157 0.0117239 0)
(1.01628 0.0173509 0)
(1.02382 0.0222894 0)
(1.03493 0.0259367 0)
(1.05154 0.028153 0)
(1.07656 0.0263983 0)
(1.08427 0.0199371 0)
(0.884708 0.00739154 0)
(0.212179 -0.000230283 0)
(0.212419 3.24022e-05 0)
(1.00124 -0.00519553 0)
(1.06726 -0.0136293 0)
(1.05777 -0.0195357 0)
(1.04548 -0.021663 0)
(1.03489 -0.0208962 0)
(1.02659 -0.0179497 0)
(1.02046 -0.0133504 0)
(1.01632 -0.00761347 0)
(1.01423 -0.000858303 0)
(1.0148 0.0060336 0)
(1.01776 0.012129 0)
(1.02276 0.017134 0)
(1.02983 0.0207571 0)
(1.03926 0.0225299 0)
(1.05078 0.021696 0)
(1.06361 0.0175018 0)
(1.05588 0.00977684 0)
(0.857446 0.00188749 0)
(0.211899 -2.59592e-05 0)
(0.211764 2.25064e-05 0)
(0.983863 -0.00221006 0)
(1.04966 -0.00701216 0)
(1.04797 -0.0114677 0)
(1.04193 -0.0141187 0)
(1.03572 -0.0148074 0)
(1.03002 -0.013541 0)
(1.02514 -0.0105776 0)
(1.02147 -0.00617983 0)
(1.01967 -0.000416226 0)
(1.02007 0.00562718 0)
(1.02265 0.0105704 0)
(1.02668 0.0140093 0)
(1.03189 0.0158453 0)
(1.0378 0.0158698 0)
(1.04392 0.0138963 0)
(1.04912 0.0100225 0)
(1.03579 0.00484183 0)
(0.845558 0.000840343 0)
(0.210989 -1.26478e-05 0)
(0.211705 7.96152e-06 0)
(0.976175 -0.000963704 0)
(1.0403 -0.00318031 0)
(1.04159 -0.00563839 0)
(1.03887 -0.00758948 0)
(1.03545 -0.00859197 0)
(1.03172 -0.00837537 0)
(1.02807 -0.00679235 0)
(1.02504 -0.00382349 0)
(1.02344 0.000315237 0)
(1.02366 0.00461948 0)
(1.02573 0.00791712 0)
(1.02863 0.00984912 0)
(1.03218 0.0103315 0)
(1.03566 0.00951533 0)
(1.03864 0.00763615 0)
(1.04039 0.00507079 0)
(1.02562 0.00233164 0)
(0.840334 0.000451947 0)
(0.210681 3.3468e-06 0)
(0.211587 6.89976e-06 0)
(0.972696 -0.000454101 0)
(1.03576 -0.00148097 0)
(1.03788 -0.0027059 0)
(1.03662 -0.00380848 0)
(1.03478 -0.00449553 0)
(1.03252 -0.00452427 0)
(1.03006 -0.00366148 0)
(1.02781 -0.00177653 0)
(1.02642 0.000980073 0)
(1.0264 0.00383935 0)
(1.02775 0.00580126 0)
(1.02957 0.00669552 0)
(1.03165 0.00660233 0)
(1.0335 0.00573846 0)
(1.0349 0.00438663 0)
(1.03542 0.00283308 0)
(1.02051 0.00134943 0)
(0.837489 0.000326195 0)
(0.210283 8.54434e-06 0)
(0.211627 7.6632e-06 0)
(0.971118 -0.000133588 0)
(1.03364 -0.000584774 0)
(1.03603 -0.00114524 0)
(1.03536 -0.00167248 0)
(1.03429 -0.00201592 0)
(1.03285 -0.00200427 0)
(1.03115 -0.00144757 0)
(1.02946 -0.000217469 0)
(1.02822 0.00160582 0)
(1.02795 0.00343275 0)
(1.02864 0.00453896 0)
(1.02969 0.00483546 0)
(1.03082 0.00450639 0)
(1.03178 0.00375139 0)
(1.03246 0.00278875 0)
(1.0325 0.00179325 0)
(1.01761 0.000891723 0)
(0.835671 0.000247817 0)
(0.209947 9.82722e-06 0)
(0.211793 1.37259e-05 0)
(0.970571 6.73221e-05 0)
(1.03277 -6.47745e-05 0)
(1.03526 -0.000251258 0)
(1.03486 -0.000409422 0)
(1.03417 -0.000464784 0)
(1.0332 -0.000316271 0)
(1.03196 0.000155618 0)
(1.03061 0.00103355 0)
(1.02944 0.00226324 0)
(1.0289 0.00338746 0)
(1.02905 0.00392019 0)
(1.0295 0.00388973 0)
(1.03002 0.00345999 0)
(1.03045 0.00279877 0)
(1.03075 0.00205869 0)
(1.03057 0.0013396 0)
(1.0157 0.000703406 0)
(0.834327 0.000224907 0)
(0.20962 1.24203e-05 0)
(0.212064 1.52683e-05 0)
(0.970657 0.000202697 0)
(1.03265 0.000273362 0)
(1.03518 0.000340168 0)
(1.03489 0.000442749 0)
(1.03438 0.000620816 0)
(1.03363 0.000927741 0)
(1.03262 0.00142503 0)
(1.03143 0.00214475 0)
(1.03022 0.00301401 0)
(1.02941 0.0036781 0)
(1.02908 0.00388576 0)
(1.0291 0.00358767 0)
(1.0292 0.00306124 0)
(1.02932 0.00242705 0)
(1.0294 0.00177904 0)
(1.02909 0.00117684 0)
(1.01422 0.000650224 0)
(0.833151 0.000231847 0)
(0.209265 1.54538e-05 0)
(0.212436 2.04676e-05 0)
(0.971203 0.000344125 0)
(1.03305 0.000572147 0)
(1.03558 0.000821892 0)
(1.03534 0.00112663 0)
(1.03489 0.00150446 0)
(1.03422 0.00197866 0)
(1.03328 0.00256527 0)
(1.03209 0.00324727 0)
(1.03074 0.00391495 0)
(1.0296 0.00426 0)
(1.02892 0.00411418 0)
(1.02852 0.00370057 0)
(1.02833 0.00308649 0)
(1.02823 0.00241817 0)
(1.02816 0.00177353 0)
(1.02777 0.0011907 0)
(1.01288 0.000683878 0)
(0.831969 0.000262974 0)
(0.20885 1.94683e-05 0)
(0.212935 2.63071e-05 0)
(0.972164 0.000483202 0)
(1.03387 0.000855773 0)
(1.03639 0.0012753 0)
(1.03614 0.0017677 0)
(1.03569 0.0023432 0)
(1.035 0.00300185 0)
(1.03401 0.00372653 0)
(1.0327 0.0044549 0)
(1.0311 0.00503226 0)
(1.02958 0.00516768 0)
(1.0285 0.00481764 0)
(1.02779 0.00418742 0)
(1.02734 0.00343633 0)
(1.02705 0.00267404 0)
(1.02688 0.00196311 0)
(1.02642 0.00133174 0)
(1.01149 0.000784198 0)
(0.830651 0.00031463 0)
(0.208345 2.45196e-05 0)
(0.213585 3.37092e-05 0)
(0.973543 0.000643393 0)
(1.03512 0.00116772 0)
(1.0376 0.00176339 0)
(1.03732 0.00245592 0)
(1.03681 0.00324663 0)
(1.03602 0.00412103 0)
(1.03489 0.00503211 0)
(1.03333 0.00587422 0)
(1.03136 0.00643752 0)
(1.02939 0.00641696 0)
(1.02788 0.00585606 0)
(1.02684 0.00501066 0)
(1.02615 0.00407425 0)
(1.0257 0.00315775 0)
(1.02542 0.0023194 0)
(1.0249 0.00158272 0)
(1.00991 0.000944898 0)
(0.829088 0.000387583 0)
(0.207719 3.10123e-05 0)
(0.214426 4.33967e-05 0)
(0.975396 0.000840895 0)
(1.03682 0.00154107 0)
(1.03925 0.0023389 0)
(1.0389 0.00326133 0)
(1.03829 0.00430578 0)
(1.03734 0.00544186 0)
(1.03596 0.00659533 0)
(1.03405 0.0076128 0)
(1.03157 0.00821851 0)
(1.02903 0.00806652 0)
(1.02703 0.00727348 0)
(1.02563 0.00617448 0)
(1.02467 0.0049963 0)
(1.02405 0.0038648 0)
(1.02366 0.00284001 0)
(1.02308 0.00194349 0)
(1.00801 0.00116795 0)
(0.827169 0.000484364 0)
(0.206934 3.91266e-05 0)
(0.215512 5.60876e-05 0)
(0.977826 0.00109101 0)
(1.03907 0.00200602 0)
(1.04143 0.00304972 0)
(1.04098 0.00425334 0)
(1.04021 0.00560921 0)
(1.03903 0.00707194 0)
(1.0373 0.00853503 0)
(1.0349 0.00979146 0)
(1.03176 0.010484 0)
(1.02851 0.0102022 0)
(1.02592 0.00913791 0)
(1.02408 0.00772355 0)
(1.02283 0.00623318 0)
(1.02202 0.00481482 0)
(1.0215 0.00353776 0)
(1.02084 0.00242435 0)
(1.00567 0.00146138 0)
(0.824778 0.000608517 0)
(0.205946 4.92187e-05 0)
(0.216919 7.28741e-05 0)
(0.980982 0.00141366 0)
(1.04199 0.00259994 0)
(1.04426 0.00395281 0)
(1.04368 0.00550951 0)
(1.0427 0.00725745 0)
(1.04119 0.00913192 0)
(1.03899 0.0109886 0)
(1.03593 0.0125543 0)
(1.03194 0.0133705 0)
(1.02778 0.0129408 0)
(1.02448 0.011543 0)
(1.02212 0.00972993 0)
(1.02051 0.0078395 0)
(1.01946 0.00605071 0)
(1.0188 0.00444448 0)
(1.01804 0.00304633 0)
(1.00275 0.00183836 0)
(0.821774 0.000766681 0)
(0.204703 6.19324e-05 0)
(0.218748 9.52243e-05 0)
(0.985068 0.00183448 0)
(1.04578 0.00336929 0)
(1.04791 0.00511916 0)
(1.04716 0.00712729 0)
(1.04589 0.00937403 0)
(1.04394 0.0117708 0)
(1.04111 0.0141246 0)
(1.0372 0.0160786 0)
(1.0321 0.0170485 0)
(1.02682 0.0164311 0)
(1.02261 0.0146117 0)
(1.01961 0.0122924 0)
(1.01757 0.00989166 0)
(1.01623 0.00762943 0)
(1.01539 0.00560269 0)
(1.01453 0.00384042 0)
(0.999075 0.00231747 0)
(0.817987 0.000965679 0)
(0.203138 7.77126e-05 0)
(0.221139 0.000125456 0)
(0.990358 0.00239121 0)
(1.05067 0.00437969 0)
(1.05263 0.00664451 0)
(1.05163 0.00923462 0)
(1.04997 0.0121213 0)
(1.04745 0.015182 0)
(1.04379 0.0181591 0)
(1.03875 0.0205891 0)
(1.03225 0.0217324 0)
(1.02554 0.0208617 0)
(1.02022 0.0185014 0)
(1.01643 0.0155393 0)
(1.01385 0.0124927 0)
(1.01216 0.00963019 0)
(1.0111 0.0070695 0)
(1.01009 0.00484449 0)
(0.994435 0.0029225 0)
(0.81321 0.00121631 0)
(0.201171 9.73217e-05 0)
(0.224291 0.000167085 0)
(0.997221 0.00313891 0)
(1.05699 0.00572725 0)
(1.05873 0.00866828 0)
(1.05738 0.0120142 0)
(1.05519 0.0157223 0)
(1.05188 0.0196245 0)
(1.04712 0.0233749 0)
(1.04063 0.0263727 0)
(1.03233 0.0276894 0)
(1.02385 0.0264646 0)
(1.01714 0.0234094 0)
(1.01238 0.019634 0)
(1.00913 0.0157733 0)
(1.007 0.0121547 0)
(1.00567 0.00892088 0)
(1.00449 0.00611112 0)
(0.988578 0.00368305 0)
(0.807188 0.00152915 0)
(0.198705 0.000121541 0)
(0.228496 0.00022651 0)
(1.00615 0.0041679 0)
(1.06517 0.00756844 0)
(1.06658 0.0114029 0)
(1.06477 0.0157282 0)
(1.06184 0.0204912 0)
(1.05745 0.0254544 0)
(1.05121 0.0301477 0)
(1.04284 0.0337939 0)
(1.03228 0.0352468 0)
(1.0216 0.0335203 0)
(1.0132 0.029573 0)
(1.00723 0.0247776 0)
(1.00316 0.0199008 0)
(1.0005 0.0153382 0)
(0.99882 0.0112617 0)
(0.997426 0.00771649 0)
(0.981192 0.00464726 0)
(0.799598 0.00192481 0)
(0.195611 0.000152098 0)
(0.234222 0.000319072 0)
(1.01783 0.00565706 0)
(1.07579 0.0101828 0)
(1.07675 0.0151805 0)
(1.07424 0.0207611 0)
(1.07024 0.0268725 0)
(1.06434 0.0331616 0)
(1.05613 0.0389719 0)
(1.04531 0.0433088 0)
(1.03193 0.0447939 0)
(1.01858 0.0423558 0)
(1.00814 0.0372766 0)
(1.00071 0.0312201 0)
(0.995629 0.0250923 0)
(0.992286 0.0193657 0)
(0.990187 0.0142463 0)
(0.988529 0.00978128 0)
(0.971885 0.00589271 0)
(0.790017 0.00243413 0)
(0.191722 0.000192177 0)
(0.242278 0.000479803 0)
(1.0333 0.00796934 0)
(1.08981 0.0140243 0)
(1.0901 0.020467 0)
(1.08648 0.0276411 0)
(1.08084 0.0354906 0)
(1.07276 0.043415 0)
(1.06185 0.0504848 0)
(1.04788 0.0554651 0)
(1.03105 0.0567733 0)
(1.01452 0.0533364 0)
(1.00167 0.0468478 0)
(0.992493 0.0392713 0)
(0.986157 0.0316405 0)
(0.981956 0.0245097 0)
(0.979315 0.0181253 0)
(0.977329 0.0125286 0)
(0.960156 0.00758777 0)
(0.777863 0.003134 0)
(0.186792 0.000251173 0)
(0.254112 0.000772325 0)
(1.0544 0.0117768 0)
(1.10901 0.0197378 0)
(1.10809 0.0279306 0)
(1.1025 0.0372315 0)
(1.09425 0.047351 0)
(1.08298 0.057195 0)
(1.06839 0.0655218 0)
(1.05042 0.0709089 0)
(1.02942 0.071666 0)
(1.00921 0.0668564 0)
(0.993559 0.058662 0)
(0.982301 0.0493209 0)
(0.974401 0.0399526 0)
(0.969061 0.0311879 0)
(0.965643 0.0233205 0)
(0.963168 0.0163865 0)
(0.945309 0.010117 0)
(0.762334 0.00422529 0)
(0.180439 0.000350136 0)
(0.272248 0.00132076 0)
(1.08419 0.0184669 0)
(1.13587 0.0287317 0)
(1.13241 0.039346 0)
(1.12343 0.051642 0)
(1.11113 0.0644449 0)
(1.0953 0.0760884 0)
(1.07581 0.0852183 0)
(1.05285 0.0903991 0)
(1.02696 0.0899653 0)
(1.00257 0.0832987 0)
(0.983752 0.0731111 0)
(0.970044 0.0618278 0)
(0.960168 0.0505722 0)
(0.953225 0.0400084 0)
(0.948532 0.0304746 0)
(0.945114 0.0220119 0)
(0.926366 0.0141045 0)
(0.742546 0.00605479 0)
(0.172189 0.000508498 0)
(0.299969 0.00263924 0)
(1.12715 0.0320442 0)
(1.17238 0.0451266 0)
(1.16388 0.05919 0)
(1.14935 0.0748229 0)
(1.13109 0.0896419 0)
(1.10908 0.101992 0)
(1.0835 0.11073 0)
(1.05475 0.114575 0)
(1.02344 0.112018 0)
(0.994536 0.102889 0)
(0.972259 0.0904361 0)
(0.955758 0.0771367 0)
(0.943469 0.0640134 0)
(0.934329 0.0516574 0)
(0.927603 0.0404092 0)
(0.92233 0.0302452 0)
(0.902415 0.0204411 0)
(0.71747 0.00877298 0)
(0.16221 0.000676196 0)
(0.341418 0.0116205 1.20611e-21)
(1.18385 0.0608657 2.72755e-21)
(1.21763 0.0772047 -1.61679e-21)
(1.19995 0.0940878 0)
(1.17711 0.110705 -8.93018e-35)
(1.15099 0.125122 1.41258e-21)
(1.12171 0.136253 -3.18757e-21)
(1.08946 0.143118 0)
(1.05455 0.144551 7.98619e-35)
(1.01749 0.139166 -5.28568e-21)
(0.983695 0.127293 0)
(0.957522 0.112615 -6.8836e-21)
(0.937672 0.0975517 -2.07048e-20)
(0.922274 0.0829853 -9.92342e-21)
(0.910047 0.0694425 -3.06605e-21)
(0.90015 0.0573324 -1.84712e-21)
(0.891549 0.046577 0)
(0.869281 0.0363776 1.33041e-21)
(0.683671 0.0226086 1.57421e-21)
(0.151917 0.00464786 2.83494e-20)
(0.360434 0.0315484 -1.09994e-20)
(1.23199 0.111277 5.00196e-22)
(1.25874 0.128829 -1.84048e-23)
(1.23251 0.143538 0)
(1.20143 0.157965 -3.09743e-21)
(1.16772 0.170185 -4.37728e-21)
(1.13139 0.179055 -2.87664e-21)
(1.09253 0.1835 -1.23703e-20)
(1.05135 0.182436 0)
(1.00811 0.174507 2.22763e-20)
(0.968593 0.160544 2.32691e-20)
(0.937465 0.14459 7.1762e-21)
(0.913188 0.128935 2.74057e-20)
(0.893581 0.114265 3.97712e-20)
(0.877236 0.101065 0)
(0.863129 0.0897728 5.83869e-20)
(0.850145 0.0806521 8.54702e-20)
(0.824369 0.0722971 9.57134e-20)
(0.654142 0.0542876 -1.11693e-19)
(0.150219 0.0129283 -2.06865e-21)
(0.346354 0.0510327 0)
(1.26308 0.178078 -3.8753e-21)
(1.28948 0.193526 0)
(1.2571 0.203696 2.10457e-21)
(1.21972 0.213553 0)
(1.17976 0.221541 -6.11729e-21)
(1.13736 0.226558 5.31277e-21)
(1.09266 0.227522 -2.25411e-20)
(1.04585 0.223243 -1.36905e-21)
(0.997116 0.212412 1.10556e-20)
(0.952733 0.196332 5.21305e-20)
(0.917728 0.179329 -1.34356e-22)
(0.890269 0.163582 -2.01399e-20)
(0.868012 0.149629 -3.80173e-20)
(0.849521 0.137716 4.59713e-20)
(0.833808 0.128031 -8.21827e-20)
(0.81988 0.120622 -1.1164e-20)
(0.796119 0.113823 0)
(0.640181 0.0906944 7.43331e-22)
(0.153426 0.0222798 0)
(0.333227 0.0678869 -1.17304e-19)
(1.27748 0.247988 4.51251e-20)
(1.30664 0.262631 2.04653e-20)
(1.27105 0.268179 -2.38106e-21)
(1.22978 0.272978 3.0589e-21)
(1.18564 0.276184 1.18183e-20)
(1.13887 0.276772 1.04521e-20)
(1.08974 0.273642 0)
(1.0385 0.26561 -4.95794e-20)
(0.985416 0.25152 0)
(0.937274 0.233155 -2.65305e-20)
(0.899451 0.215065 -3.52445e-20)
(0.870009 0.199133 -2.19667e-20)
(0.846454 0.185522 -2.77354e-20)
(0.82722 0.17422 0)
(0.811234 0.165268 0)
(0.797374 0.158619 -7.3373e-20)
(0.77447 0.15196 1.46142e-20)
(0.626617 0.122385 -8.67734e-21)
(0.152511 0.0303135 -1.01438e-20)
(0.323721 0.0832721 8.90039e-20)
(1.28069 0.316886 0)
(1.31324 0.331386 -5.92884e-20)
(1.27609 0.332632 -1.0715e-20)
(1.23268 0.332892 -3.13377e-21)
(1.18589 0.331554 0)
(1.13603 0.32772 8.061e-21)
(1.08349 0.320356 2.33052e-20)
(1.02875 0.308406 2.37718e-20)
(0.972214 0.290823 5.20955e-20)
(0.921239 0.269939 0)
(0.881507 0.250493 -7.51035e-20)
(0.850886 0.233984 -4.67735e-20)
(0.826672 0.220244 -2.7843e-20)
(0.807172 0.209053 1.79245e-19)
(0.791197 0.200186 2.178e-20)
(0.777575 0.193603 1.04375e-19)
(0.755443 0.186518 -5.05154e-19)
(0.613336 0.151095 3.03225e-19)
(0.15098 0.0377469 -3.66113e-19)
(0.31734 0.0978307 9.47558e-20)
(1.27757 0.381661 -1.63308e-20)
(1.31239 0.397519 1.08814e-20)
(1.27456 0.395259 2.57894e-20)
(1.22984 0.391487 1.12208e-20)
(1.18125 0.386027 1.5791e-21)
(1.12921 0.378054 -9.15765e-21)
(1.0742 0.366571 2.25174e-20)
(1.01688 0.350671 -5.08896e-20)
(0.957808 0.329477 0)
(0.904824 0.305888 -3.29654e-20)
(0.863832 0.284835 -1.14777e-21)
(0.832511 0.267409 -5.12438e-20)
(0.807997 0.253187 0)
(0.788466 0.241698 -3.85745e-20)
(0.772636 0.232613 -9.30187e-20)
(0.759262 0.225761 2.56227e-19)
(0.737742 0.218104 -2.56708e-19)
(0.600555 0.177239 3.67484e-19)
(0.149079 0.0445618 -3.82634e-19)
(0.312485 0.111547 -5.71008e-22)
(1.27108 0.442191 2.01436e-20)
(1.30665 0.459946 5.42418e-20)
(1.26841 0.454992 -1.70255e-20)
(1.2229 0.447881 6.43648e-21)
(1.17309 0.438793 0)
(1.11944 0.42698 -4.99508e-21)
(1.06257 0.411601 -2.25421e-20)
(1.00327 0.391803 -2.51863e-20)
(0.942342 0.366933 0)
(0.887975 0.340504 -3.2025e-20)
(0.846182 0.317637 -4.24221e-20)
(0.814496 0.299069 5.49723e-20)
(0.789887 0.284106 -3.48627e-20)
(0.770449 0.272073 -1.66287e-19)
(0.754845 0.262532 1.017e-19)
(0.741764 0.255245 3.19873e-20)
(0.720835 0.246894 0)
(0.588032 0.201052 -3.51597e-19)
(0.146951 0.0508242 -1.28537e-20)
(0.30858 0.124664 1.54025e-20)
(1.26249 0.499152 -2.30778e-20)
(1.29769 0.518713 -2.89167e-20)
(1.25902 0.511486 -4.74512e-20)
(1.21286 0.501562 3.49052e-20)
(1.16213 0.489325 -7.26095e-21)
(1.10725 0.474057 1.17756e-20)
(1.04896 0.454994 -3.55607e-20)
(0.98817 0.431376 1.79225e-20)
(0.925935 0.402801 -1.21839e-19)
(0.870704 0.373466 -3.73906e-20)
(0.828475 0.348667 0)
(0.796641 0.328819 5.89118e-20)
(0.772073 0.312914 7.19234e-20)
(0.752808 0.300174 8.83221e-20)
(0.737464 0.290064 -1.09405e-19)
(0.724706 0.282223 -3.28285e-20)
(0.704366 0.273051 3.93646e-20)
(0.57567 0.222711 0)
(0.144725 0.0565904 -2.77954e-20)
(0.305359 0.137243 -1.76759e-19)
(1.25258 0.552821 1.07318e-19)
(1.28657 0.57402 3.008e-20)
(1.24747 0.564849 -3.61099e-20)
(1.20071 0.552508 2.23776e-20)
(1.14914 0.537478 -2.90926e-21)
(1.09322 0.519071 -1.47118e-20)
(1.03375 0.496506 -1.31182e-20)
(0.971841 0.469157 -4.33053e-20)
(0.908752 0.43687 -2.74254e-22)
(0.853109 0.404599 -1.1017e-19)
(0.810736 0.377864 1.02263e-19)
(0.77887 0.356664 -6.42925e-20)
(0.754401 0.339715 7.9502e-20)
(0.735335 0.326148 0)
(0.720256 0.315322 -5.85252e-20)
(0.707842 0.306841 -1.61253e-21)
(0.688152 0.296738 -1.69288e-19)
(0.563473 0.242477 -2.53338e-20)
(0.142323 0.061847 0)
(0.302789 0.149249 0)
(1.24183 0.603577 1.10707e-19)
(1.2741 0.626073 7.16598e-20)
(1.23445 0.615279 4.0825e-20)
(1.18711 0.600817 1.82206e-20)
(1.13473 0.58329 0)
(1.0778 0.561959 -2.34212e-21)
(1.01727 0.536051 -7.62889e-22)
(0.954493 0.505003 9.09096e-20)
(0.890949 0.468966 -1.5329e-20)
(0.83533 0.433782 -7.89664e-20)
(0.793035 0.405196 5.09496e-20)
(0.761207 0.382671 -1.54997e-21)
(0.73682 0.364632 8.25989e-20)
(0.717902 0.350123 5.40646e-20)
(0.703087 0.338476 -1.26779e-19)
(0.691018 0.329259 1.53362e-19)
(0.671994 0.318185 4.59821e-20)
(0.551249 0.260339 1.92579e-19)
(0.139637 0.0665406 -5.13953e-19)
(0.300886 0.161001 -4.40529e-20)
(1.23068 0.651644 6.42375e-20)
(1.26082 0.675116 -4.60569e-20)
(1.22049 0.662979 -4.70515e-20)
(1.17255 0.646663 0)
(1.11932 0.626874 1.12561e-20)
(1.06138 0.602797 1.41816e-20)
(0.999798 0.573627 2.64721e-20)
(0.936285 0.538864 0)
(0.872636 0.498997 -2.1954e-19)
(0.817498 0.46095 2.05456e-19)
(0.77557 0.430699 0)
(0.743751 0.407029 7.33632e-20)
(0.719283 0.387892 -1.76202e-21)
(0.700416 0.37233 -1.68851e-19)
(0.685784 0.359717 6.66161e-20)
(0.674039 0.349634 0)
(0.655715 0.337545 2.4776e-19)
(0.538915 0.276528 0)
(0.136652 0.07069 -2.43705e-19)
(0.299596 0.172538 4.81795e-20)
(1.21937 0.697194 7.37695e-20)
(1.24703 0.721518 -4.6917e-20)
(1.20603 0.708132 0)
(1.15736 0.690227 2.57129e-20)
(1.10322 0.668388 0)
(1.04424 0.64172 -7.88424e-21)
(0.981567 0.609287 -9.2947e-21)
(0.917339 0.570713 1.40282e-20)
(0.853905 0.526867 -1.06286e-19)
(0.799816 0.486 1.99412e-20)
(0.758542 0.454489 0)
(0.726652 0.429969 -1.51892e-19)
(0.701828 0.409813 2.00279e-21)
(0.682741 0.393057 0)
(0.668131 0.379293 2.89407e-21)
(0.656658 0.368123 2.23354e-19)
(0.639067 0.354884 -2.17431e-19)
(0.526341 0.290983 6.46845e-20)
(0.133169 0.074155 0)
(0.298667 0.183702 0)
(1.20843 0.740351 8.11703e-20)
(1.23313 0.765505 5.52999e-20)
(1.19138 0.75099 -2.25632e-21)
(1.14186 0.731662 1.84257e-20)
(1.08671 0.707959 2.02293e-20)
(1.02658 0.678842 5.4455e-21)
(0.962749 0.643193 -1.34415e-20)
(0.89779 0.600607 6.43241e-20)
(0.834802 0.552492 -1.58177e-19)
(0.782413 0.50885 1.79638e-21)
(0.742285 0.476573 -6.03202e-20)
(0.710181 0.451739 2.44175e-19)
(0.684532 0.430802 -2.63284e-21)
(0.664744 0.41278 -1.31444e-19)
(0.649802 0.397518 -2.43283e-19)
(0.638505 0.384944 0)
(0.621658 0.370359 0)
(0.513058 0.303752 7.23616e-20)
(0.128935 0.0767519 -4.18439e-20)
(0.298466 0.194812 5.82857e-20)
(1.19766 0.781363 -1.71401e-19)
(1.21942 0.807219 -5.70583e-20)
(1.1768 0.791744 0)
(1.12633 0.771159 -5.33693e-22)
(1.07 0.745741 2.74811e-20)
(1.00855 0.714293 7.1499e-21)
(0.94343 0.675483 4.64408e-20)
(0.877687 0.628662 7.91595e-20)
(0.815357 0.57582 -1.20049e-19)
(0.765484 0.529294 -1.50514e-19)
(0.727231 0.496965 1.54925e-19)
(0.694775 0.472725 0)
(0.667505 0.451415 -5.77757e-20)
(0.646145 0.432013 -1.45032e-19)
(0.630353 0.414947 -1.77075e-19)
(0.618977 0.400564 -2.17867e-19)
(0.602869 0.384049 6.5952e-20)
(0.498335 0.314692 -3.87931e-20)
(0.123504 0.0781304 7.86887e-22)
(0.298389 0.206013 0)
(1.18716 0.820573 0)
(1.206 0.84687 7.21045e-22)
(1.16243 0.830552 0)
(1.11096 0.80887 -6.40041e-20)
(1.05332 0.781893 -2.54278e-20)
(0.990358 0.748242 0)
(0.923709 0.70627 4.4846e-21)
(0.857036 0.655059 1.25167e-19)
(0.795548 0.596829 -2.63666e-19)
(0.749148 0.547068 0)
(0.713874 0.515593 -9.05912e-20)
(0.680977 0.49338 -4.16361e-21)
(0.650958 0.472492 -3.90354e-21)
(0.626889 0.451573 1.5362e-19)
(0.609492 0.431956 -6.43312e-22)
(0.59759 0.415185 -4.79447e-19)
(0.58174 0.396003 1.46648e-19)
(0.481339 0.323187 4.40305e-20)
(0.116203 0.0781038 0)
(0.298588 0.217089 -2.09382e-19)
(1.177 0.857926 -1.01946e-19)
(1.193 0.884566 -1.37511e-19)
(1.14842 0.867546 1.68929e-19)
(1.09586 0.844903 -1.15848e-19)
(1.03684 0.816541 0)
(0.972205 0.780823 3.22907e-21)
(0.903696 0.735745 -1.13268e-20)
(0.835768 0.679909 1.48405e-21)
(0.775318 0.615565 1.81774e-20)
(0.733477 0.561807 1.60878e-19)
(0.702858 0.532194 -2.93292e-20)
(0.669648 0.514053 -1.3831e-19)
(0.635473 0.49525 -6.78473e-20)
(0.606817 0.473092 8.77134e-20)
(0.586435 0.44956 -4.40719e-22)
(0.572738 0.429122 1.35282e-19)
(0.557124 0.406243 -3.2352e-19)
(0.461175 0.328813 3.93255e-19)
(0.106586 0.0759576 5.63352e-20)
(0.298824 0.227839 7.59607e-20)
(1.16735 0.893643 -5.35955e-20)
(1.18051 0.920476 4.41159e-21)
(1.13491 0.902849 9.27642e-20)
(1.08116 0.879378 2.7881e-20)
(1.02066 0.84978 4.50183e-20)
(0.954232 0.812195 -1.59809e-21)
(0.883604 0.764099 -4.75337e-20)
(0.813889 0.703396 -1.27305e-19)
(0.754357 0.632096 -1.34302e-19)
(0.71851 0.573114 0)
(0.694862 0.546309 -1.17892e-19)
(0.661859 0.535363 1.93582e-19)
(0.622094 0.520775 0)
(0.586009 0.49691 -1.87494e-19)
(0.560476 0.469245 1.22901e-19)
(0.54422 0.442074 -1.49157e-19)
(0.529898 0.414906 -1.85049e-19)
(0.436435 0.330802 -3.29443e-19)
(0.0933805 0.0705444 -2.57899e-19)
(0.299621 0.238581 -8.20103e-20)
(1.15816 0.927784 5.72143e-20)
(1.16858 0.954697 1.24919e-19)
(1.12193 0.936537 1.27157e-19)
(1.06699 0.912368 -5.35528e-20)
(1.00494 0.881714 2.87773e-20)
(0.936544 0.842448 -9.97471e-22)
(0.863545 0.791527 -4.87992e-20)
(0.791514 0.725816 -7.2199e-20)
(0.732351 0.646461 1.18255e-19)
(0.703966 0.580555 2.65186e-19)
(0.690642 0.557021 0)
(0.659405 0.557282 0)
(0.611408 0.550901 -7.93393e-20)
(0.564393 0.525882 0)
(0.527367 0.495459 2.74268e-19)
(0.50776 0.459465 3.37762e-19)
(0.493997 0.423789 0)
(0.402146 0.328967 0)
(0.0753499 0.0610264 2.94086e-19)
(0.300272 0.248875 8.95839e-20)
(1.14945 0.96043 6.90284e-20)
(1.15724 0.987316 8.81557e-20)
(1.10956 0.968695 -1.0955e-19)
(1.0534 0.943935 -5.82492e-20)
(0.989769 0.912402 -3.84749e-20)
(0.919309 0.871691 -6.35277e-22)
(0.843607 0.818153 -2.13343e-21)
(0.768754 0.747451 -9.75232e-22)
(0.709085 0.658916 -8.99455e-21)
(0.688895 0.58366 1.13369e-19)
(0.690406 0.563037 0)
(0.664006 0.580632 1.74327e-19)
(0.605191 0.588589 1.60138e-19)
(0.539977 0.565719 4.66214e-19)
(0.489143 0.522804 1.5045e-19)
(0.462467 0.475812 -1.9827e-19)
(0.447853 0.427305 -1.1905e-19)
(0.356857 0.318211 0)
(0.0528118 0.0457826 3.36078e-19)
(0.301512 0.259482 -1.93929e-19)
(1.14119 0.991589 0)
(1.14647 1.01838 9.64145e-20)
(1.09782 0.999354 -8.67576e-20)
(1.04047 0.974126 6.3636e-20)
(0.975227 0.941882 5.71981e-20)
(0.902663 0.900003 1.12999e-21)
(0.823983 0.844165 -2.60718e-21)
(0.745611 0.76858 0)
(0.684473 0.669876 -9.64092e-20)
(0.673154 0.581865 -1.4964e-19)
(0.694996 0.563838 7.55736e-21)
(0.679462 0.604223 2.01362e-19)
(0.606497 0.627972 0)
(0.510357 0.619631 3.21678e-19)
(0.441355 0.573298 0)
(0.399513 0.50717 0)
(0.380279 0.420968 -1.4129e-19)
(0.299325 0.285564 0)
(0.0502118 0.0316973 9.36526e-20)
(0.30248 0.269549 -2.09952e-19)
(1.1333 1.0215 0)
(1.13623 1.04801 1.56466e-19)
(1.08669 1.02867 0)
(1.02819 1.00313 -3.3452e-20)
(0.961327 0.970404 0)
(0.886603 0.927711 -1.16128e-21)
(0.804692 0.87003 7.89012e-21)
(0.721978 0.789847 8.04713e-21)
(0.657975 0.680023 -8.75437e-20)
(0.655845 0.575032 2.57909e-21)
(0.705331 0.556462 4.51892e-20)
(0.709103 0.626758 1.78096e-19)
(0.617628 0.686534 3.58967e-20)
(0.491469 0.682341 2.63238e-19)
(0.387685 0.624362 0)
(0.321594 0.541264 4.61734e-19)
(0.279793 0.414616 -2.84207e-19)
(0.157419 0.222001 3.33804e-19)
(-0.0488723 0.44207 -4.05227e-19)
(0.303691 0.279618 1.70615e-19)
(1.12552 1.05026 2.51698e-19)
(1.12637 1.07646 0)
(1.07606 1.05704 9.30324e-22)
(1.01638 1.03151 9.13664e-20)
(0.947776 0.998651 -1.02989e-19)
(0.870787 0.955684 1.05405e-21)
(0.78509 0.896794 0)
(0.696797 0.812385 5.78104e-20)
(0.627196 0.690203 -4.99605e-21)
(0.633589 0.561269 0)
(0.721919 0.534359 0)
(0.763636 0.645671 1.14247e-19)
(0.644689 0.755247 -1.24672e-19)
(0.473879 0.786336 -2.74581e-19)
(0.312644 0.737956 0)
(0.194333 0.612741 2.41525e-19)
(0.0839139 0.685817 -2.92129e-19)
(0.0855851 1.89718 -1.62873e-19)
(0.11036 2.8144 -2.00268e-19)
(0.304955 0.2886 -1.24091e-19)
(1.1177 1.07781 -3.1317e-19)
(1.11687 1.10352 8.63417e-20)
(1.06601 1.08429 7.18698e-20)
(1.00511 1.05901 0)
(0.934743 1.02633 -7.10311e-20)
(0.855573 0.983676 6.3334e-22)
(0.765645 0.924254 -4.39266e-21)
(0.670578 0.836227 7.97195e-21)
(0.59207 0.701115 5.54459e-20)
(0.604135 0.539569 -7.07283e-20)
(0.743654 0.489253 -1.16568e-19)
(0.840174 0.66698 5.16079e-20)
(0.69402 0.875834 -2.76456e-19)
(0.472449 0.933236 -4.27681e-19)
(0.239697 0.849828 0)
(0.130817 1.0355 0)
(0.196451 2.50174 1.2558e-19)
(0.192502 3.12762 0)
(0.183587 3.29564 2.91847e-19)
(0.309748 0.295931 0)
(1.10942 1.10391 0)
(1.10763 1.12886 0)
(1.05629 1.11017 2.06238e-20)
(0.994173 1.08539 7.44691e-20)
(0.9221 1.05329 -4.94091e-20)
(0.841012 1.01173 2.239e-21)
(0.746487 0.95234 -4.6815e-21)
(0.643368 0.862006 7.77173e-20)
(0.552403 0.713926 -6.07164e-21)
(0.565109 0.508588 -3.18273e-19)
(0.771962 0.406394 2.10084e-20)
(0.991757 0.608714 -1.64437e-20)
(0.845223 0.946412 4.38018e-20)
(0.515083 1.07712 -7.3435e-21)
(0.223106 1.15548 6.56495e-22)
(0.259351 2.51077 -6.33588e-19)
(0.291344 3.1957 -2.35109e-19)
(0.255406 3.33808 1.07784e-19)
(0.227031 3.36795 -1.0845e-19)
(0.195417 0.230362 7.03364e-20)
(1.099 1.12787 0)
(1.09953 1.15286 -1.6546e-19)
(1.0474 1.13523 -1.81012e-19)
(0.984265 1.11128 1.5809e-19)
(0.91069 1.08007 5.18339e-20)
(0.828612 1.03894 -4.8546e-21)
(0.730298 0.98177 6.04012e-20)
(0.618367 0.894699 -6.93007e-20)
(0.509406 0.740681 0)
(0.509574 0.489922 -2.52614e-19)
(0.785216 0.281507 2.62145e-19)
(1.1498 0.539939 0)
(1.07532 1.11617 5.77453e-21)
(0.605625 1.31887 1.35309e-19)
(0.282678 1.98556 -1.61658e-19)
(0.423775 3.19472 1.69061e-19)
(0.37324 3.35238 7.71737e-20)
(0.303178 3.39883 8.7492e-20)
(0.257269 3.42146 9.6687e-20)
(0.376375 0.363176 -1.14215e-19)
(1.07939 1.14282 0)
(1.08885 1.18835 1.67585e-19)
(1.03286 1.17265 1.83307e-19)
(0.967474 1.1501 -1.59159e-19)
(0.890691 1.12021 -5.17981e-20)
(0.801914 1.0802 5.1967e-21)
(0.695949 1.02306 5.56186e-21)
(0.570636 0.932744 8.48133e-20)
(0.433087 0.757512 2.57799e-20)
(0.389683 0.394867 -1.47026e-20)
(0.738767 0.120128 -6.1433e-19)
(1.34902 0.801459 -1.10238e-19)
(1.21131 1.61024 4.8448e-20)
(0.741611 2.12625 -5.67031e-20)
(0.627005 3.17404 2.87034e-20)
(0.555308 3.44542 -1.54309e-20)
(0.458436 3.48731 -1.52304e-20)
(0.372438 3.52801 4.08948e-20)
(0.274972 3.5022 1.63385e-21)
(0.368091 0.364006 0)
(1.07982 1.1692 4.99781e-20)
(1.08131 1.21413 -3.43721e-20)
(1.02449 1.19928 -2.14717e-20)
(0.957592 1.1776 -1.02323e-19)
(0.879163 1.14878 5.03465e-20)
(0.787374 1.10993 -5.28834e-21)
(0.676479 1.05495 5.78841e-21)
(0.539872 0.966503 -1.0139e-19)
(0.370542 0.784808 8.88589e-21)
(0.244758 0.367029 8.21741e-19)
(0.48132 0.199737 -1.36381e-19)
(1.28059 1.21462 1.71981e-19)
(1.28035 2.18119 5.83317e-20)
(0.81339 2.74661 8.1045e-20)
(0.751414 3.49971 2.50298e-20)
(0.591918 3.59163 -2.17032e-19)
(0.500972 3.60396 -1.63119e-19)
(0.392536 3.64629 1.55757e-19)
(0.292609 3.60928 7.83511e-20)
(0.34944 0.3613 1.30929e-19)
(1.07843 1.19974 3.33527e-19)
(1.0742 1.24288 -9.43608e-20)
(1.01597 1.22831 -7.79862e-20)
(0.947554 1.20732 0)
(0.867505 1.1795 7.62055e-20)
(0.773037 1.14228 -5.83798e-21)
(0.657604 1.09034 5.98705e-21)
(0.509967 1.00709 -1.13716e-20)
(0.306875 0.833509 -6.55847e-20)
(0.0644605 0.451667 4.51107e-19)
(0.131998 0.507893 1.1769e-18)
(0.979176 1.80678 1.79094e-18)
(1.15756 2.79473 -8.87956e-19)
(0.850858 3.36611 -4.89261e-19)
(0.779855 3.71752 0)
(0.625966 3.70934 0)
(0.533591 3.7431 1.6057e-19)
(0.416106 3.78244 0)
(0.293024 3.74015 2.59602e-19)
(0.335684 0.362506 -1.95005e-19)
(1.07487 1.2329 -2.80582e-19)
(1.06624 1.274 0)
(1.00653 1.2592 2.11091e-21)
(0.936762 1.2387 -1.02873e-19)
(0.855194 1.21185 1.14087e-19)
(0.758518 1.17667 -5.27967e-21)
(0.639073 1.1286 4.24937e-21)
(0.481462 1.05394 -1.04426e-19)
(0.244754 0.902653 7.44996e-21)
(-0.119214 0.61587 0)
(-0.229586 0.920562 0)
(0.635583 2.42238 1.83567e-18)
(0.94973 3.27664 -4.89641e-19)
(0.822929 3.77164 -4.98736e-19)
(0.758838 3.84887 0)
(0.664203 3.82805 4.24449e-19)