/*--------------------------------*- C++ -*----------------------------------*\
  =========                 |
  \\      /  F ield         | OpenFOAM: The Open Source CFD Toolbox
   \\    /   O peration     | Website:  https://openfoam.org
    \\  /    A nd           | Version:  9
     \\/     M anipulation  |
\*---------------------------------------------------------------------------*/
FoamFile
{
    format      ascii;
    class       volScalarField;
    location    "7";
    object      p;
}
// * * * * * * * * * * * * * * * * * * * * * * * * * * * * * * * * * * * * * //

dimensions      [0 2 -2 0 0 0 0];

internalField   nonuniform List<scalar> 
8800
(
0.415982
0.368377
0.329973
0.301342
0.280938
0.266619
0.256529
0.24948
0.244949
0.242954
0.243886
0.247518
0.253501
0.262123
0.274237
0.29137
0.315664
0.349254
0.391464
0.45011
0.246474
0.254259
0.262455
0.266214
0.265231
0.260724
0.254806
0.249256
0.244923
0.242214
0.241753
0.243852
0.247708
0.252929
0.258959
0.264538
0.267523
0.2663
0.260157
0.251001
0.22445
0.230952
0.23572
0.239386
0.242054
0.243274
0.24278
0.24119
0.239498
0.238639
0.239234
0.240986
0.243038
0.244402
0.244206
0.242264
0.239166
0.234938
0.22983
0.225972
0.218668
0.221557
0.225753
0.229389
0.231798
0.233351
0.234263
0.234575
0.234457
0.234392
0.234756
0.235348
0.235611
0.235228
0.234166
0.232347
0.229406
0.225322
0.221719
0.220421
0.218388
0.219418
0.221672
0.224108
0.226435
0.228381
0.229772
0.230594
0.231029
0.231302
0.23163
0.231802
0.231564
0.230732
0.229232
0.227191
0.224901
0.222484
0.220821
0.220453
0.217946
0.21831
0.219211
0.220302
0.221382
0.22244
0.223576
0.22453
0.225258
0.225791
0.226104
0.226106
0.225718
0.224986
0.224105
0.223192
0.222196
0.221196
0.22059
0.220457
0.216072
0.216246
0.216767
0.217524
0.218374
0.219318
0.220201
0.221038
0.221784
0.222417
0.222812
0.222875
0.222646
0.222209
0.221495
0.220782
0.220109
0.219508
0.219192
0.219136
0.21323
0.213307
0.213549
0.21394
0.214425
0.215019
0.215714
0.216477
0.217254
0.217981
0.218496
0.218689
0.218615
0.218376
0.218065
0.217742
0.217442
0.217191
0.217071
0.217045
0.209837
0.209888
0.21005
0.210324
0.210692
0.211167
0.211751
0.212444
0.213227
0.214055
0.21473
0.215112
0.215253
0.215234
0.215126
0.214979
0.214828
0.214704
0.214643
0.214626
0.206082
0.206112
0.206224
0.20642
0.206709
0.207114
0.207658
0.208357
0.209209
0.210181
0.21106
0.211651
0.211986
0.212145
0.2122
0.212198
0.212169
0.212137
0.21212
0.212109
0.202
0.202025
0.202115
0.202284
0.202547
0.202936
0.203486
0.204234
0.205198
0.20637
0.207505
0.208342
0.208885
0.209224
0.20942
0.209526
0.209578
0.2096
0.209607
0.2096
0.197594
0.197617
0.19771
0.197879
0.198152
0.198568
0.199178
0.200034
0.201179
0.20262
0.204071
0.205187
0.205966
0.206479
0.206806
0.207006
0.207123
0.207185
0.20721
0.207205
0.192851
0.192872
0.192974
0.193165
0.193476
0.193959
0.194677
0.195702
0.197099
0.198896
0.200744
0.202208
0.203248
0.203952
0.204413
0.204704
0.20488
0.204978
0.205019
0.205014
0.187714
0.187739
0.187859
0.188086
0.188461
0.189046
0.189923
0.191187
0.192926
0.195184
0.197535
0.199417
0.200764
0.201689
0.202302
0.202693
0.202932
0.203067
0.203124
0.203119
0.182094
0.182124
0.182273
0.182555
0.18302
0.183749
0.184846
0.18643
0.188619
0.191471
0.194453
0.196849
0.198574
0.199762
0.200553
0.20106
0.201371
0.201548
0.201623
0.201618
0.17587
0.175908
0.176097
0.176453
0.177043
0.177966
0.179355
0.181362
0.184134
0.187747
0.191524
0.19456
0.196748
0.198259
0.199264
0.19991
0.200307
0.200533
0.200629
0.200623
0.168877
0.168925
0.169168
0.169626
0.170381
0.171563
0.173337
0.175896
0.179421
0.184004
0.188783
0.192618
0.195379
0.197285
0.198554
0.19937
0.199872
0.200157
0.200278
0.20027
0.160892
0.160955
0.161271
0.161864
0.162841
0.164366
0.166648
0.169927
0.174425
0.180243
0.18628
0.19111
0.194581
0.196975
0.198569
0.199593
0.200224
0.200582
0.200734
0.200724
0.151617
0.151701
0.152115
0.152893
0.154168
0.156151
0.159106
0.163328
0.169081
0.176469
0.184082
0.190146
0.194495
0.197492
0.199487
0.200769
0.201558
0.202007
0.202196
0.202183
0.140645
0.140761
0.14131
0.142339
0.144023
0.146629
0.150484
0.155947
0.163323
0.172697
0.182274
0.18986
0.195291
0.199031
0.201522
0.203124
0.20411
0.20467
0.204905
0.204888
0.127415
0.127577
0.128315
0.129702
0.131962
0.135429
0.140505
0.147615
0.15709
0.168968
0.180967
0.190415
0.197167
0.201823
0.20493
0.20693
0.208161
0.208858
0.209151
0.20913
0.111114
0.111343
0.112358
0.114278
0.117385
0.12208
0.128844
0.138161
0.150348
0.165352
0.180298
0.191994
0.200353
0.206135
0.210009
0.212512
0.214052
0.21492
0.215283
0.215257
0.0905056
0.0908324
0.092289
0.0950647
0.0994702
0.105969
0.11512
0.12742
0.143101
0.161954
0.180425
0.194788
0.205075
0.21224
0.217086
0.220244
0.222195
0.223287
0.223739
0.223705
0.0636468
0.0641398
0.0663866
0.0706331
0.0771221
0.0863663
0.0989617
0.115299
0.13542
0.15892
0.181505
0.19896
0.211525
0.220385
0.226481
0.230534
0.233083
0.234523
0.23511
0.235055
0.0272165
0.0280976
0.0320402
0.039066
0.0490999
0.0626777
0.0802493
0.101936
0.127536
0.156463
0.183692
0.20462
0.219802
0.230709
0.238424
0.243744
0.247246
0.24931
0.250169
0.250083
-0.0254261
-0.0228307
-0.0144859
-0.00173064
0.0146264
0.0349845
0.05945
0.0878863
0.119929
0.154907
0.187148
0.211802
0.229861
0.243137
0.252883
0.259969
0.265001
0.268267
0.269788
0.269689
-0.105519
-0.0930197
-0.0737549
-0.0506375
-0.0246502
0.00472156
0.0375577
0.0737345
0.112908
0.15448
0.192188
0.221009
0.242436
0.25866
0.271147
0.280903
0.288583
0.294422
0.298111
0.298902
-0.190614
-0.163847
-0.133051
-0.0996148
-0.0639055
-0.0255751
0.0155744
0.0595455
0.10615
0.15497
0.199119
0.233141
0.258883
0.278907
0.294896
0.308001
0.318946
0.328506
0.336396
0.33756
-0.253526
-0.22458
-0.185895
-0.144259
-0.100227
-0.0538117
-0.00496856
0.0463064
0.0999058
0.155513
0.205529
0.243963
0.273018
0.295594
0.313527
0.328034
0.339923
0.349766
0.356588
0.357765
-0.303247
-0.27225
-0.229153
-0.182058
-0.132047
-0.0793263
-0.0240508
0.0336269
0.0934964
0.155184
0.210296
0.252336
0.283789
0.307873
0.326671
0.3416
0.353648
0.363436
0.370305
0.371573
-0.34215
-0.310761
-0.264606
-0.213635
-0.159269
-0.101756
-0.0413629
0.0216684
0.0870447
0.154275
0.214073
0.259287
0.292701
0.317937
0.33734
0.352509
0.364554
0.374108
0.380801
0.382121
-0.374144
-0.342668
-0.29462
-0.240802
-0.183079
-0.121751
-0.0571163
0.0105101
0.0807564
0.15302
0.217148
0.265313
0.300545
0.326814
0.34674
0.362104
0.37415
0.383592
0.390124
0.391447
-0.401491
-0.370015
-0.32067
-0.264781
-0.204446
-0.14003
-0.0719075
-0.000387923
0.0741789
0.151158
0.21956
0.270734
0.307852
0.335221
0.355727
0.371345
0.383444
0.392815
0.399205
0.40053
-0.425738
-0.394194
-0.343887
-0.286425
-0.224082
-0.157232
-0.086209
-0.0113143
0.0671709
0.148687
0.221444
0.275845
0.31505
0.343677
0.364882
0.380832
0.393039
0.402393
0.408682
0.409997
-0.447863
-0.416166
-0.365099
-0.30637
-0.242414
-0.173594
-0.100205
-0.0224487
0.0595644
0.145477
0.222798
0.280775
0.322397
0.352532
0.374604
0.391003
0.403392
0.412751
0.418932
0.420237
-0.468584
-0.436589
-0.384851
-0.325096
-0.259855
-0.18946
-0.114153
-0.0339981
0.0511783
0.141376
0.223551
0.285573
0.330047
0.362017
0.385179
0.402162
0.414803
0.424181
0.430322
0.431684
-0.488006
-0.455742
-0.403422
-0.342851
-0.276585
-0.20497
-0.128173
-0.0460797
0.0418608
0.13623
0.223575
0.290204
0.338066
0.372286
0.396816
0.414563
0.427574
0.437119
0.443045
0.444502
-0.506427
-0.473823
-0.420982
-0.359781
-0.292712
-0.220194
-0.142317
-0.0587594
0.0314963
0.129853
0.222695
0.294552
0.346438
0.383409
0.409662
0.428386
0.441882
0.4516
0.457473
0.458907
-0.523906
-0.490986
-0.437671
-0.375907
-0.308267
-0.235148
-0.156594
-0.0720588
0.0200167
0.122082
0.220708
0.298457
0.355074
0.395388
0.423783
0.443759
0.457898
0.467856
0.473723
0.475075
-0.540436
-0.507264
-0.453522
-0.391255
-0.323226
-0.249783
-0.170952
-0.0859571
0.00737742
0.112778
0.217396
0.301712
0.363811
0.408135
0.439165
0.460723
0.475729
0.486053
0.491923
0.493113
-0.55605
-0.522541
-0.468454
-0.405826
-0.337558
-0.264044
-0.185303
-0.100384
-0.00641747
0.101824
0.212545
0.304072
0.372422
0.421444
0.455703
0.479252
0.495394
0.506258
0.512192
0.513104
-0.570851
-0.536877
-0.482469
-0.419574
-0.351199
-0.27785
-0.199559
-0.115235
-0.021332
0.08914
0.205977
0.305299
0.38061
0.435034
0.473186
0.499257
0.516784
0.528283
0.534322
0.534951
-0.584625
-0.55043
-0.495558
-0.432458
-0.364105
-0.291108
-0.213605
-0.130386
-0.0372639
0.0746891
0.197543
0.305159
0.388025
0.44851
0.491183
0.52048
0.53983
0.552083
0.558082
0.558336
-0.597438
-0.562937
-0.507723
-0.444452
-0.37622
-0.303752
-0.227311
-0.145699
-0.0541006
0.0584707
0.187109
0.303442
0.394344
0.461204
0.509154
0.542508
0.564381
0.577398
0.582999
0.582713
-0.609376
-0.574453
-0.518953
-0.45555
-0.387511
-0.315703
-0.240576
-0.161017
-0.0716986
0.0405445
0.174573
0.300085
0.399155
0.47247
0.526122
0.564641
0.590481
0.604597
0.608412
0.607046
-0.620378
-0.585077
-0.529239
-0.465737
-0.397957
-0.326906
-0.25329
-0.176187
-0.0898798
0.02099
0.159931
0.29496
0.402434
0.481513
0.540356
0.585156
0.617546
0.635771
0.636232
0.630595
-0.630581
-0.594815
-0.538621
-0.475061
-0.407603
-0.337397
-0.265482
-0.191238
-0.108742
-0.000436598
0.142782
0.287949
0.404045
0.487569
0.550265
0.601118
0.642455
0.672991
0.677509
0.652532
-0.640024
-0.603673
-0.547177
-0.483666
-0.416634
-0.347385
-0.277429
-0.206594
-0.128989
-0.0249838
0.121808
0.278403
0.403771
0.490524
0.552949
0.60606
0.651259
0.681524
0.677904
0.645416
-0.64859
-0.611604
-0.554784
-0.49144
-0.424871
-0.356631
-0.288908
-0.221899
-0.150207
-0.0524794
0.0967742
0.266155
0.40239
0.490984
0.544494
0.590483
0.623116
0.629584
0.564199
0.515892
-0.65568
-0.61843
-0.561175
-0.497858
-0.431895
-0.364853
-0.299712
-0.236975
-0.172264
-0.0833226
0.0670866
0.2508
0.399933
0.489826
0.527348
0.544793
0.557877
0.511757
0.428476
0.373142
-0.710092
-0.621445
-0.567345
-0.504009
-0.438858
-0.372996
-0.309873
-0.251972
-0.19538
-0.117829
0.0316406
0.232338
0.395426
0.486383
0.494706
0.477035
0.434126
0.355229
0.255905
0.200839
-0.64154
-0.627208
-0.57331
-0.512178
-0.447539
-0.383097
-0.323905
-0.273018
-0.231369
-0.175895
-0.0342632
0.199593
0.389496
0.45892
0.43353
0.2785
0.125645
0.0229041
-0.0778147
-0.0245441
-0.666084
-0.635348
-0.580297
-0.519023
-0.454421
-0.39087
-0.333516
-0.288226
-0.258371
-0.224312
-0.101478
0.152096
0.374776
0.421353
0.317792
0.0865786
-0.118852
-0.263331
-0.40659
-0.310579
-0.680416
-0.64503
-0.588469
-0.526231
-0.461486
-0.398483
-0.342959
-0.303045
-0.285723
-0.274804
-0.170984
0.0978971
0.346203
0.380164
0.18054
-0.140023
-0.401787
-0.600241
-0.815473
-0.697268
-0.692914
-0.654247
-0.596177
-0.532673
-0.467536
-0.404947
-0.351379
-0.316983
-0.313356
-0.335496
-0.273151
0.0123535
0.302583
0.29585
-0.00759677
-0.394586
-0.736527
-1.02649
-1.3532
-1.28729
-0.70275
-0.662805
-0.603309
-0.538609
-0.472927
-0.410564
-0.358798
-0.33
-0.341636
-0.405918
-0.414291
-0.131841
0.203072
0.139558
-0.229697
-0.657029
-1.08262
-1.47586
-1.939
-2.28754
-0.710945
-0.670327
-0.609899
-0.544181
-0.477786
-0.415314
-0.364904
-0.341156
-0.368545
-0.483995
-0.608298
-0.362718
0.025961
-0.0808464
-0.473517
-0.884697
-1.35236
-1.77196
-1.96348
-2.32342
-0.71826
-0.677137
-0.616007
-0.549328
-0.482053
-0.419133
-0.369536
-0.350248
-0.393977
-0.572664
-0.872588
-0.727787
-0.266353
-0.383383
-0.730958
-1.06092
-1.44889
-1.78879
-1.86577
-1.91479
-0.725145
-0.683485
-0.621626
-0.553926
-0.485555
-0.421782
-0.372268
-0.356435
-0.416082
-0.669918
-1.21967
-1.24143
-0.682141
-0.755074
-1.00375
-1.18977
-1.43308
-1.77163
-1.82503
-1.7669
-0.731927
-0.689526
-0.62675
-0.557866
-0.488102
-0.422932
-0.372542
-0.35833
-0.431878
-0.762384
-1.62037
-1.84366
-1.17943
-1.15649
-1.29795
-1.34148
-1.29675
-1.44155
-1.54381
-1.52057
-0.738926
-0.695445
-0.631467
-0.561133
-0.48961
-0.422355
-0.36985
-0.354551
-0.436245
-0.831636
-1.95926
-2.36223
-1.62913
-1.52429
-1.64343
-1.55702
-1.11512
-1.14182
-1.4319
-1.53714
-0.746205
-0.701374
-0.635905
-0.563819
-0.490068
-0.420015
-0.363833
-0.344061
-0.423491
-0.844605
-2.11236
-2.59334
-1.86057
-1.8142
-2.1423
-2.45022
-2.32218
-2.23627
-2.15457
-2.15264
-0.753847
-0.707529
-0.640255
-0.566071
-0.489646
-0.415977
-0.354575
-0.326291
-0.389796
-0.775254
-1.95634
-2.3512
-1.7546
-1.91608
-2.66482
-3.94297
-4.32033
-3.979
-3.4833
-3.25161
-0.762206
-0.714111
-0.644772
-0.568164
-0.488612
-0.410611
-0.342434
-0.301868
-0.33639
-0.62152
-1.47151
-1.64993
-1.2473
-1.54696
-2.53052
-4.14828
-4.59894
-4.03653
-3.41395
-3.14751
-0.771501
-0.721533
-0.649807
-0.570451
-0.487377
-0.404431
-0.328398
-0.272758
-0.269301
-0.417343
-0.827216
-0.768513
-0.462978
-0.591937
-1.06743
-1.70753
-1.97993
-1.75326
-1.51379
-1.4157
-0.782042
-0.730088
-0.6557
-0.573308
-0.486436
-0.398195
-0.313569
-0.241395
-0.198144
-0.215589
-0.257639
-0.0492658
0.188669
0.25029
0.187612
0.112609
0.126719
0.17627
0.2075
0.214649
-0.793903
-0.740087
-0.662716
-0.577076
-0.48615
-0.392398
-0.299187
-0.210936
-0.131925
-0.0550064
0.0888376
0.35266
0.553548
0.698843
0.784594
0.859823
0.92929
0.971816
0.986008
0.987017
-0.806969
-0.751151
-0.670807
-0.581661
-0.486695
-0.387607
-0.286223
-0.183533
-0.0765846
0.0565066
0.264067
0.52215
0.72139
0.882855
1.00196
1.09477
1.16601
1.21041
1.23052
1.23332
-0.820401
-0.762772
-0.679253
-0.586715
-0.48779
-0.383689
-0.275057
-0.160774
-0.0342655
0.128169
0.3487
0.583168
0.771424
0.920483
1.03429
1.12073
1.18526
1.22949
1.25379
1.25863
-0.831251
-0.77267
-0.686877
-0.590985
-0.488481
-0.380074
-0.265583
-0.142816
-0.00408879
0.170899
0.385665
0.595025
0.765239
0.897875
0.998996
1.07563
1.1334
1.17544
1.20057
1.20595
-0.83686
-0.778364
-0.690956
-0.592546
-0.487186
-0.37552
-0.25697
-0.128842
0.0161141
0.193902
0.396188
0.58251
0.733712
0.851539
0.941855
1.0109
1.06374
1.1035
1.12649
1.13279
-0.83432
-0.776348
-0.688606
-0.588432
-0.48149
-0.368272
-0.247807
-0.117479
0.0289572
0.202729
0.39077
0.557168
0.691326
0.796566
0.878258
0.941627
0.990974
1.02864
1.05064
1.05714
-0.816433
-0.760956
-0.675341
-0.575389
-0.468777
-0.355954
-0.236222
-0.107208
0.0363171
0.202812
0.374849
0.52321
0.642292
0.736584
0.810873
0.869322
0.915527
0.950728
0.972209
0.97909
-0.776841
-0.726729
-0.646147
-0.548788
-0.445493
-0.336514
-0.220814
-0.0965046
0.040279
0.194973
0.350476
0.481854
0.586802
0.670606
0.737683
0.791329
0.834275
0.867298
0.888306
0.895614
-0.711256
-0.669613
-0.593601
-0.504024
-0.408264
-0.306989
-0.199403
-0.0839968
0.0419178
0.181868
0.319157
0.433171
0.523601
0.59598
0.654537
0.702225
0.740566
0.770761
0.791775
0.798883
-0.609417
-0.579893
-0.514923
-0.43752
-0.354409
-0.265739
-0.170718
-0.0682801
0.0431335
0.165349
0.282714
0.378053
0.452401
0.510975
0.557656
0.595596
0.626609
0.650617
0.666252
0.670955
-0.458319
-0.443619
-0.401116
-0.345242
-0.282537
-0.212678
-0.135212
-0.0494151
0.0456558
0.150841
0.251696
0.332646
0.394566
0.44212
0.478713
0.506623
0.527767
0.544594
0.55672
0.559868
-0.298416
-0.293381
-0.271873
-0.240112
-0.200271
-0.1517
-0.094019
-0.026518
0.051166
0.139085
0.22402
0.291881
0.343043
0.381131
0.408951
0.429047
0.443497
0.453032
0.4582
0.459277
-0.169202
-0.167212
-0.158588
-0.14315
-0.121209
-0.0911398
-0.0514533
-0.00134358
0.0596344
0.131114
0.201207
0.256947
0.298149
0.327938
0.349101
0.36348
0.372494
0.377805
0.380449
0.380786
-0.0774176
-0.077791
-0.0759827
-0.0699392
-0.0583087
-0.0400203
-0.0135671
0.0225111
0.0689847
0.12561
0.182271
0.227416
0.26043
0.283697
0.299275
0.309244
0.315392
0.318763
0.320057
0.320093
-0.0199293
-0.0207927
-0.0216823
-0.0201363
-0.014408
-0.00300755
0.0152142
0.0414622
0.0767119
0.121039
0.166112
0.202001
0.227875
0.245768
0.257722
0.265281
0.269553
0.271564
0.272201
0.272183
0.0136899
0.0131326
0.0123828
0.0130605
0.0163216
0.0234698
0.0359481
0.0550856
0.0817939
0.116242
0.151787
0.180195
0.200657
0.214716
0.223825
0.229332
0.232395
0.233839
0.234298
0.234292
0.0346196
0.0343582
0.0340229
0.0346333
0.0370422
0.0422023
0.0511696
0.0651859
0.085326
0.111954
0.139808
0.162111
0.178033
0.188807
0.195747
0.199965
0.202292
0.203361
0.203704
0.203701
0.0483239
0.048201
0.0480662
0.0485917
0.0503778
0.0541675
0.0608469
0.0713999
0.0867159
0.107226
0.128895
0.146298
0.158724
0.167138
0.172532
0.175769
0.177539
0.178352
0.178617
0.178615
0.0569904
0.0569464
0.0569558
0.0574657
0.0589022
0.0617955
0.0668238
0.0748013
0.0865004
0.102327
0.119168
0.132728
0.142395
0.148905
0.153059
0.155551
0.156914
0.157539
0.157743
0.15774
0.0621128
0.0621026
0.0621745
0.0626334
0.0637899
0.0660424
0.0699072
0.0760108
0.0849784
0.0971797
0.11023
0.120759
0.128261
0.133311
0.13653
0.138456
0.139505
0.139983
0.140137
0.140133
0.0646246
0.0646284
0.0647216
0.0651189
0.0660479
0.067806
0.0707888
0.0754837
0.0823858
0.0918049
0.101913
0.11008
0.115899
0.11981
0.122299
0.123784
0.124591
0.124956
0.125072
0.125066
0.065174
0.0651823
0.0652729
0.0656028
0.0663434
0.0677194
0.0700318
0.0736554
0.0789781
0.0862529
0.0940758
0.100402
0.104909
0.107936
0.109859
0.111004
0.111623
0.1119
0.111986
0.11198
0.0642124
0.0642211
0.0642995
0.064566
0.0651505
0.066224
0.0680177
0.0708191
0.0749301
0.080552
0.0866033
0.0914998
0.0949868
0.097326
0.09881
0.0996915
0.100165
0.100375
0.100438
0.100432
0.0620795
0.0620872
0.0621514
0.0623628
0.06282
0.0636554
0.0650461
0.0672135
0.0703901
0.0747339
0.0794129
0.083199
0.0858942
0.0877013
0.088846
0.0895237
0.0898868
0.0900448
0.0900906
0.0900852
0.0590365
0.0590426
0.0590938
0.0592593
0.059616
0.0602647
0.0613416
0.063017
0.0654708
0.0688267
0.0724415
0.0753671
0.0774492
0.0788424
0.0797227
0.0802427
0.0805196
0.0806391
0.0806729
0.0806682
0.0552878
0.0552925
0.0553324
0.055461
0.0557369
0.0562387
0.0570711
0.0583656
0.0602604
0.0628509
0.0656412
0.0678977
0.0695022
0.0705758
0.0712533
0.0716521
0.071863
0.0719527
0.0719773
0.0719731
0.0509922
0.0509957
0.0510263
0.0511252
0.0513379
0.051725
0.0523668
0.0533644
0.0548245
0.0568205
0.0589703
0.0607085
0.0619432
0.062768
0.0632881
0.0635938
0.0637543
0.0638219
0.0638398
0.0638362
0.0462744
0.046277
0.0462998
0.0463751
0.0465378
0.046835
0.0473285
0.0480957
0.049218
0.0507519
0.0524039
0.0537389
0.0546869
0.0553194
0.0557166
0.055949
0.0560702
0.0561202
0.0561328
0.0561297
0.0412301
0.0412318
0.0412485
0.0413053
0.0414292
0.0416564
0.0420335
0.0426196
0.0434781
0.0446523
0.0459162
0.0469371
0.0476612
0.0481432
0.0484451
0.048622
0.0487131
0.0487502
0.0487591
0.0487564
0.0359343
0.0359351
0.035947
0.0359894
0.0360828
0.0362544
0.0365404
0.0369856
0.0376378
0.0385294
0.039489
0.0402632
0.0408109
0.0411748
0.0414027
0.0415362
0.041604
0.0416307
0.0416366
0.0416346
0.0304475
0.0304477
0.030456
0.0304869
0.0305561
0.0306838
0.0308968
0.0312298
0.0317185
0.0323869
0.0331061
0.033686
0.0340966
0.0343694
0.0345393
0.0346372
0.0346865
0.0347052
0.0347087
0.034707
0.0248175
0.0248173
0.0248222
0.0248435
0.024893
0.0249852
0.0251403
0.0253836
0.0257411
0.0262308
0.0267585
0.0271846
0.0274863
0.027686
0.0278096
0.0278797
0.0279144
0.0279266
0.0279281
0.0279266
0.0190797
0.0190791
0.0190815
0.0190952
0.0191285
0.0191924
0.0193016
0.0194734
0.0197257
0.0200717
0.0204445
0.0207438
0.0209534
0.0210908
0.0211755
0.0212239
0.0212473
0.0212549
0.0212556
0.0212544
0.0132624
0.0132615
0.0132615
0.0132692
0.0132903
0.0133317
0.0134019
0.0135125
0.0136764
0.0139006
0.0141431
0.0143358
0.0144716
0.0145614
0.0146159
0.0146453
0.0146586
0.0146617
0.0146607
0.0146598
0.00739136
0.00739075
0.00738982
0.00739279
0.00740283
0.00742358
0.00746017
0.00751859
0.00760484
0.00772373
0.00785226
0.00795656
0.00802984
0.00807682
0.00810471
0.00811946
0.00812473
0.00812408
0.00812238
0.00812182
0.001482
0.00148174
0.00147794
0.0014761
0.00147685
0.00147992
0.00148594
0.00149578
0.00151076
0.0015321
0.00155793
0.00158297
0.00160088
0.00161253
0.00161997
0.00162418
0.00162593
0.00162567
0.00162332
0.00162069
-0.928128
-0.630788
-0.314704
-0.0612655
0.14094
0.304079
0.444328
0.565814
0.626545
0.598933
-0.407617
-0.216803
-0.0240319
0.139885
0.278466
0.395481
0.492326
0.562507
0.597708
0.603301
-0.0700169
0.0512147
0.175351
0.285903
0.381985
0.463211
0.527399
0.572806
0.601785
0.614637
0.153728
0.233404
0.319006
0.396621
0.464241
0.520752
0.565808
0.599782
0.62473
0.639493
0.312354
0.368938
0.43034
0.486693
0.535981
0.578101
0.613125
0.640675
0.661893
0.677307
0.436129
0.478599
0.524288
0.568159
0.607415
0.641706
0.670633
0.693934
0.71247
0.728382
0.539314
0.573534
0.613201
0.650208
0.684232
0.714439
0.740351
0.761304
0.777216
0.793459
0.634846
0.667146
0.705074
0.74017
0.772285
0.800789
0.825007
0.844147
0.857745
0.874378
0.734431
0.769646
0.808546
0.844083
0.875683
0.903058
0.925746
0.943557
0.955588
0.972809
0.85235
0.891282
0.931266
0.966639
0.996892
1.02236
1.04325
1.05943
1.07108
1.08911
0.998935
1.03835
1.07512
1.10641
1.13262
1.15515
1.17451
1.19029
1.20288
1.22091
1.17513
1.20722
1.23382
1.25654
1.27675
1.29573
1.31369
1.33031
1.34582
1.36397
1.36437
1.38183
1.39709
1.4135
1.42956
1.44422
1.45758
1.47164
1.48924
1.50941
1.54652
1.55607
1.56775
1.57869
1.58819
1.59786
1.60865
1.62007
1.63149
1.64686
1.75361
1.75729
1.7425
1.728
1.72183
1.7275
1.74612
1.77645
1.80857
1.83517
2.06058
1.92581
1.84911
1.80642
1.78889
1.79299
1.82022
1.87671
1.97962
2.20409
0.30634
0.304353
0.300019
0.291773
0.280009
0.268428
0.258772
0.251395
0.246188
0.24313
0.24263
0.244876
0.249309
0.255799
0.264453
0.275287
0.287336
0.297872
0.303717
0.306565
0.230173
0.236154
0.243023
0.248194
0.25132
0.251684
0.249609
0.246314
0.243104
0.240881
0.240524
0.242356
0.245465
0.249058
0.252069
0.253109
0.251406
0.24716
0.241296
0.234307
0.220987
0.223247
0.227527
0.231567
0.23436
0.236254
0.237344
0.237515
0.236985
0.236418
0.236455
0.2372
0.238196
0.238694
0.238232
0.236858
0.23462
0.231283
0.226908
0.22347
0.218036
0.218731
0.221474
0.2251
0.228158
0.230375
0.23183
0.232634
0.232925
0.232957
0.233158
0.233635
0.233893
0.23363
0.232706
0.231023
0.22849
0.225157
0.221737
0.220085
0.218465
0.218677
0.219614
0.221097
0.222594
0.224211
0.225727
0.226931
0.227773
0.228332
0.228712
0.228865
0.228663
0.228
0.226866
0.225425
0.22399
0.222567
0.221301
0.220789
0.217115
0.217196
0.217684
0.218549
0.219471
0.220533
0.221462
0.222343
0.223123
0.223761
0.224232
0.224447
0.224321
0.223893
0.223321
0.222535
0.221655
0.220816
0.220139
0.219909
0.214759
0.214794
0.215009
0.215462
0.216045
0.216753
0.217549
0.218385
0.219197
0.219941
0.220529
0.220808
0.220761
0.220466
0.220003
0.219487
0.21901
0.218567
0.218273
0.218185
0.211578
0.211597
0.211721
0.211988
0.212357
0.212821
0.213385
0.214049
0.214792
0.21557
0.216274
0.21672
0.216876
0.216834
0.216678
0.216469
0.216248
0.21604
0.215902
0.21586
0.208003
0.208015
0.208097
0.208278
0.208552
0.208929
0.209428
0.210057
0.210814
0.211677
0.212539
0.213176
0.213522
0.213662
0.213674
0.21362
0.213539
0.213457
0.213402
0.213382
0.204079
0.204085
0.204146
0.204283
0.204505
0.204831
0.205292
0.205917
0.206726
0.207714
0.208781
0.209654
0.21022
0.210554
0.210737
0.210824
0.210857
0.21086
0.210856
0.210852
0.199839
0.199842
0.1999
0.200024
0.200235
0.200561
0.201042
0.201721
0.202639
0.203816
0.20515
0.206308
0.207105
0.207641
0.207975
0.208177
0.208293
0.208354
0.208383
0.208388
0.195266
0.195267
0.195327
0.195462
0.195691
0.196052
0.196596
0.197383
0.198475
0.199912
0.201589
0.203088
0.204169
0.204913
0.205404
0.205716
0.205906
0.206016
0.206072
0.206085
0.190337
0.190336
0.190404
0.190559
0.190826
0.191252
0.191902
0.192855
0.194193
0.195979
0.198097
0.200021
0.201437
0.202419
0.203079
0.203507
0.203774
0.203931
0.204012
0.204032
0.184971
0.184969
0.185051
0.18524
0.185567
0.186091
0.186893
0.188075
0.189746
0.19199
0.194668
0.19712
0.198932
0.200205
0.201064
0.201625
0.201977
0.202186
0.202294
0.202323
0.179067
0.179063
0.179167
0.179404
0.179815
0.180473
0.181482
0.182972
0.18508
0.187916
0.191307
0.194419
0.196724
0.198346
0.199445
0.200164
0.200616
0.200885
0.201025
0.201061
0.172483
0.172478
0.172611
0.172913
0.173437
0.174275
0.17556
0.177455
0.180133
0.18373
0.188027
0.191964
0.194879
0.196931
0.198323
0.199233
0.199806
0.200149
0.200326
0.200372
0.165027
0.165021
0.165193
0.165584
0.166259
0.167337
0.168987
0.171412
0.17483
0.179404
0.184846
0.189817
0.193489
0.196073
0.197824
0.19897
0.199692
0.200123
0.200346
0.200404
0.156443
0.156436
0.156662
0.157173
0.158051
0.15945
0.161582
0.164705
0.169083
0.174909
0.181796
0.188058
0.192669
0.19591
0.198105
0.199541
0.200446
0.200987
0.201266
0.201339
0.146379
0.146371
0.146674
0.147351
0.148507
0.150338
0.153116
0.15716
0.162788
0.170217
0.178924
0.186787
0.19256
0.196611
0.199354
0.201148
0.20228
0.202957
0.203307
0.203396
0.134349
0.13434
0.134754
0.135668
0.13721
0.139634
0.143288
0.148563
0.15583
0.165307
0.17629
0.18613
0.193326
0.198374
0.201792
0.204033
0.205448
0.206298
0.206736
0.206847
0.119662
0.119655
0.12024
0.121502
0.123594
0.12685
0.131717
0.13866
0.148083
0.160174
0.173978
0.186229
0.19516
0.201428
0.205682
0.20848
0.210256
0.211329
0.211887
0.212025
0.101322
0.101331
0.102197
0.103986
0.106882
0.111348
0.117944
0.127183
0.13945
0.15485
0.172104
0.187249
0.198266
0.206022
0.211317
0.21482
0.217062
0.218436
0.219161
0.219339
0.077806
0.0778661
0.0792201
0.0818532
0.0860122
0.0923509
0.101498
0.113927
0.129927
0.149449
0.170829
0.189374
0.202852
0.212406
0.219001
0.223418
0.226281
0.228065
0.229031
0.229274
0.0465315
0.0467342
0.0490238
0.0531789
0.0595626
0.0689936
0.0819843
0.0988388
0.119661
0.144192
0.170366
0.192781
0.209084
0.220773
0.228996
0.234631
0.238368
0.240745
0.242065
0.242414
0.00277233
0.00338828
0.00784008
0.0152329
0.0258908
0.0405111
0.0592221
0.0820806
0.108946
0.13936
0.170907
0.197569
0.217004
0.231152
0.241381
0.248663
0.253725
0.257116
0.259089
0.259579
-0.0617927
-0.0593869
-0.0490586
-0.0345413
-0.0158177
0.00701843
0.0337534
0.0642715
0.0982814
0.135263
0.172563
0.20368
0.226425
0.243261
0.255819
0.265213
0.272202
0.277352
0.280647
0.281154
-0.139807
-0.135055
-0.115927
-0.0896399
-0.0603049
-0.0279635
0.00748444
0.0460642
0.0876327
0.131814
0.175803
0.212508
0.239731
0.260441
0.276523
0.289222
0.299428
0.307652
0.312129
0.313991
-0.219052
-0.206926
-0.178099
-0.14186
-0.102948
-0.0615711
-0.0177135
0.0287234
0.0777059
0.129001
0.179682
0.221964
0.253493
0.277732
0.296863
0.312258
0.324782
0.335019
0.341933
0.34537
-0.275973
-0.262856
-0.229245
-0.186629
-0.140703
-0.0921572
-0.0411158
0.0123414
0.0681198
0.125984
0.182713
0.229731
0.264577
0.291148
0.311842
0.328195
0.341223
0.351621
0.3587
0.362047
-0.320819
-0.307458
-0.270388
-0.223469
-0.172679
-0.118813
-0.062151
-0.00290162
0.0587253
0.122414
0.184569
0.235754
0.273302
0.301545
0.323217
0.340098
0.35336
0.363796
0.370985
0.374226
-0.356368
-0.343255
-0.304348
-0.254373
-0.20001
-0.142127
-0.081006
-0.0169287
0.0497929
0.11875
0.185908
0.240885
0.280816
0.310478
0.332929
0.350173
0.363552
0.373955
0.381175
0.384397
-0.386266
-0.373354
-0.333243
-0.281107
-0.224014
-0.162909
-0.0981412
-0.0300299
0.0410912
0.114767
0.186601
0.245248
0.287524
0.318589
0.341811
0.359436
0.372963
0.383377
0.390674
0.393871
-0.412249
-0.399465
-0.358499
-0.304777
-0.245644
-0.182033
-0.114301
-0.0427927
0.0321961
0.110248
0.186677
0.249103
0.29387
0.326468
0.350565
0.368637
0.382364
0.392829
0.400195
0.403363
-0.435574
-0.422838
-0.38121
-0.326254
-0.265506
-0.199906
-0.129774
-0.0554103
0.0229773
0.105112
0.186133
0.252577
0.300125
0.334493
0.359634
0.378275
0.392272
0.402834
0.410281
0.413438
-0.457099
-0.444395
-0.402108
-0.346159
-0.284117
-0.216908
-0.144834
-0.0681074
0.013224
0.0991696
0.184859
0.255697
0.306438
0.342913
0.369338
0.388701
0.403064
0.413768
0.421258
0.424382
-0.477288
-0.464541
-0.421623
-0.364848
-0.301788
-0.233316
-0.159704
-0.0810638
0.00278261
0.0922633
0.182727
0.258415
0.312864
0.351881
0.379897
0.40018
0.415025
0.425955
0.433506
0.436622
-0.496323
-0.483422
-0.440055
-0.382554
-0.318668
-0.249225
-0.174461
-0.0943648
-0.00845536
0.0842389
0.17955
0.260607
0.319381
0.361464
0.391459
0.412908
0.428385
0.439603
0.447245
0.450318
-0.514416
-0.501332
-0.457476
-0.39941
-0.334844
-0.264696
-0.189133
-0.108035
-0.020565
0.0749668
0.175154
0.2621
0.325889
0.371658
0.40409
0.427013
0.443305
0.454926
0.462684
0.46575
-0.531542
-0.518297
-0.473953
-0.415422
-0.350343
-0.27972
-0.203701
-0.122054
-0.0335674
0.0643294
0.169338
0.262693
0.332225
0.382373
0.417792
0.442573
0.459907
0.472049
0.479975
0.483069
-0.547766
-0.534303
-0.489574
-0.430565
-0.365143
-0.294255
-0.218109
-0.136361
-0.0474323
0.05226
0.161933
0.26216
0.33817
0.393442
0.432487
0.459595
0.478261
0.491066
0.499221
0.502336
-0.563024
-0.549412
-0.504269
-0.444853
-0.379196
-0.308241
-0.23226
-0.150868
-0.0620906
0.0387226
0.152768
0.260274
0.343469
0.404624
0.447956
0.47791
0.498305
0.512004
0.520497
0.52354
-0.577411
-0.563542
-0.518015
-0.458269
-0.392456
-0.321612
-0.246067
-0.165451
-0.0774596
0.0237495
0.141713
0.256814
0.347854
0.415533
0.463828
0.497269
0.519857
0.534753
0.543691
0.546588
-0.590722
-0.576799
-0.530791
-0.470776
-0.40489
-0.334285
-0.259431
-0.179982
-0.0934009
0.00738435
0.128683
0.251602
0.351105
0.425741
0.479545
0.517283
0.54268
0.558999
0.568207
0.570847
-0.603168
-0.589061
-0.54261
-0.482362
-0.416476
-0.346226
-0.272246
-0.194337
-0.109765
-0.0102723
0.113649
0.244568
0.352919
0.434712
0.494315
0.537267
0.566736
0.585058
0.594
0.595688
-0.61467
-0.600339
-0.553508
-0.49302
-0.427177
-0.357378
-0.284433
-0.208365
-0.126386
-0.0291076
0.096594
0.235602
0.353165
0.441933
0.507349
0.556011
0.591149
0.613396
0.621713
0.619927
-0.625334
-0.610813
-0.563463
-0.502749
-0.437002
-0.367713
-0.295918
-0.221957
-0.143095
-0.0489375
0.0775505
0.224657
0.351727
0.447335
0.517591
0.571367
0.613658
0.644131
0.656268
0.6457
-0.635162
-0.620436
-0.572557
-0.511656
-0.446093
-0.377417
-0.306935
-0.235444
-0.160424
-0.0706579
0.0552717
0.210698
0.348371
0.450802
0.523431
0.580347
0.628816
0.670352
0.690046
0.689073
-0.644197
-0.629119
-0.580769
-0.519754
-0.45448
-0.386504
-0.317443
-0.248752
-0.178294
-0.0943551
0.0292779
0.193198
0.34292
0.451936
0.522829
0.576832
0.623243
0.657364