/*--------------------------------*- C++ -*----------------------------------*\
  =========                 |
  \\      /  F ield         | OpenFOAM: The Open Source CFD Toolbox
   \\    /   O peration     | Website:  https://openfoam.org
    \\  /    A nd           | Version:  9
     \\/     M anipulation  |
\*---------------------------------------------------------------------------*/
FoamFile
{
    format      ascii;
    class       surfaceScalarField;
    location    "7";
    object      phi;
}
// * * * * * * * * * * * * * * * * * * * * * * * * * * * * * * * * * * * * * //

dimensions      [0 3 -1 0 0 0 0];

internalField   nonuniform List<scalar> 
17370
(
-0.0915408
0.0960051
0.284547
-0.0775825
0.0593501
0.365008
-0.0428058
0.0311425
0.427831
-0.0216109
0.0154322
0.50543
-0.0108267
0.00804756
0.602181
-0.00602186
0.00471177
0.720368
-0.00362202
0.00284339
0.863685
-0.00215724
0.00163226
1.03598
-0.00113502
0.000737139
1.2429
-0.000332379
-4.13827e-05
1.49156
0.000416646
-0.000826971
1.4916
0.00122936
-0.00173091
1.24319
0.00225502
-0.00293516
1.03632
0.00370506
-0.00478439
0.863986
0.00608407
-0.00809743
0.721071
0.0108664
-0.0154626
0.603811
0.0216349
-0.0311625
0.508967
0.042823
-0.0593638
0.432709
0.0775929
-0.096011
0.365194
0.0915478
0.197463
-0.12737
0.0885847
0.038785
-0.364653
0.354501
-0.0707872
0.0809396
-0.446471
0.454232
-0.0783868
0.0706258
-0.521057
0.528944
-0.0628669
0.0549799
-0.613102
0.620835
-0.0477596
0.0400268
-0.727051
0.73386
-0.0332446
0.0264358
-0.867381
0.872322
-0.0210121
0.0160709
-1.03842
1.04166
-0.0123748
0.00912981
-1.24467
1.24684
-0.00670013
0.00452201
-1.49281
1.49441
-0.002837
0.00123478
-1.4926
1.49403
0.000196687
-0.00162462
-1.24408
1.24575
0.00322082
-0.00488237
-1.03752
1.03992
0.00702837
-0.00942696
-0.86604
0.869718
0.012647
-0.0163253
-0.724445
0.729853
0.0212526
-0.0266613
-0.609097
0.61586
0.033452
-0.0402149
-0.51527
0.522469
0.0479251
-0.0551242
-0.439742
0.447483
0.0629891
-0.0707303
-0.374793
0.377328
0.0784742
-0.0810085
-0.257254
0.225223
0.0708335
-0.0388026
-0.0699543
0.0610311
0.00892319
-0.0483876
0.0542912
-0.375563
0.369659
-0.0527201
0.0483393
-0.453978
0.458358
-0.0426856
0.0381573
-0.527454
0.531982
-0.0337135
0.0299911
-0.620517
0.624239
-0.0263307
0.0230932
-0.734406
0.737643
-0.0196132
0.0164995
-0.873509
0.876623
-0.0132569
0.0104895
-1.04277
1.04554
-0.00765512
0.00515025
-1.24798
1.25048
-0.00234017
-0.000424781
-1.49625
1.49901
0.00316809
-0.00591631
-1.49667
1.49941
0.00838564
-0.0111875
-1.24939
1.25219
0.0139198
-0.0171063
-1.04511
1.0483
0.0201629
-0.0235771
-0.876822
0.880236
0.0267621
-0.0303711
-0.738744
0.742353
0.0340592
-0.0384596
-0.625819
0.630219
0.042954
-0.0485783
-0.534949
0.540574
0.0529277
-0.05446
-0.458653
0.460185
0.0485118
-0.0297451
-0.338351
0.319584
0.00894482
-0.0698978
0.060953
-0.0560764
0.0533136
0.00276278
-0.0242558
0.0328552
-0.361348
0.352749
-0.036556
0.0368016
-0.460254
0.460009
-0.0350101
0.0328543
-0.535807
0.537962
-0.0303562
0.0280572
-0.627474
0.629773
-0.0252828
0.0227178
-0.74042
0.742985
-0.0198649
0.0172398
-0.879322
0.881947
-0.0142835
0.011531
-1.04827
1.05102
-0.00844307
0.00559382
-1.25315
1.256
-0.00244312
-0.000502011
-1.50183
1.50478
0.00344382
-0.0065777
-1.50234
1.50547
0.00938642
-0.0124115
-1.25511
1.25814
0.0151035
-0.017994
-1.05122
1.05411
0.0205639
-0.0233562
-0.883145
0.885937
0.0258683
-0.0285782
-0.745595
0.748305
0.0308067
-0.0332452
-0.634118
0.636557
0.0353509
-0.0370882
-0.544751
0.546489
0.0367927
-0.0330339
-0.458715
0.454956
0.0243785
-0.011298
-0.302672
0.289592
0.00278334
-0.0559789
0.0531956
-0.0521566
0.0518345
0.000322129
-0.00790029
0.0139479
-0.345277
0.33923
-0.0193697
0.0227084
-0.457944
0.454605
-0.0249902
0.025992
-0.538244
0.537242
-0.0263543
0.0259747
-0.63098
0.63136
-0.0249404
0.0234838
-0.745011
0.746468
-0.021404
0.0191158
-0.884445
0.886733
-0.0162901
0.0134447
-1.05381
1.05665
-0.0100772
0.00677048
-1.25907
1.26238
-0.00293333
-0.00080638
-1.50813
1.51187
0.00453663
-0.0083235
-1.50895
1.51274
0.011544
-0.0147948
-1.26126
1.26451
0.0175377
-0.0202457
-1.05693
1.05964
0.02243
-0.0244029
-0.888365
0.890338
0.0257816
-0.0267393
-0.750004
0.750962
0.0270096
-0.026546
-0.637285
0.636821
0.0254744
-0.0231207
-0.545844
0.54349
0.0197182
-0.0142172
-0.449948
0.444447
0.00808683
-0.00251602
-0.280809
0.275239
0.000355336
-0.0520104
0.051655
-0.0516897
0.0515744
0.000115365
-0.00348208
0.00743203
-0.334315
0.330365
-0.0125575
0.0169014
-0.45055
0.446206
-0.0207255
0.0229924
-0.535575
0.533309
-0.0241575
0.0243498
-0.631356
0.631164
-0.0238521
0.0228654
-0.747623
0.748609
-0.0211714
0.0191692
-0.888833
0.890835
-0.0165086
0.0137252
-1.0595
1.06228
-0.0103054
0.00688967
-1.26581
1.26922
-0.00279589
-0.0012478
-1.5158
1.51984
0.00525693
-0.00925097
-1.51669
1.52068
0.0125487
-0.0158149
-1.26782
1.27109
0.018436
-0.0209192
-1.06223
1.06472
0.0227448
-0.0242263
-0.89201
0.893491
0.0250467
-0.025413
-0.751432
0.751799
0.0251167
-0.0238274
-0.636004
0.634715
0.021442
-0.0174912
-0.54014
0.53619
0.0130326
-0.00777955
-0.438886
0.433633
0.00371473
-0.00104104
-0.271475
0.268801
0.000153046
-0.0514773
0.0513242
-0.051542
0.0515603
-1.82738e-05
-0.00132966
0.00346664
-0.327369
0.325232
-0.00690178
0.0103465
-0.442098
0.438654
-0.0137736
0.0162411
-0.530723
0.528255
-0.0180927
0.0190657
-0.630501
0.629528
-0.0193633
0.0190114
-0.74941
0.749762
-0.0179948
0.0165482
-0.892654
0.8941
-0.0144501
0.0121136
-1.06491
1.06725
-0.00913659
0.00605469
-1.27253
1.27561
-0.00223036
-0.00163588
-1.5239
1.52776
0.00545325
-0.00916461
-1.52462
1.52833
0.0121527
-0.0149912
-1.27421
1.27705
0.0171249
-0.0189878
-1.06698
1.06885
0.0202303
-0.0210366
-0.894783
0.89559
0.0212023
-0.020685
-0.751793
0.751275
0.019493
-0.0174196
-0.632766
0.630693
0.0147581
-0.0111338
-0.532152
0.528528
0.00751984
-0.00391002
-0.429081
0.425472
0.00162228
-0.000381189
-0.266962
0.26572
2.87481e-05
-0.0512477
0.051219
-0.0515735
0.0515775
-4.00114e-06
-0.000604667
0.00161576
-0.323751
0.32274
-0.0033884
0.00533687
-0.435994
0.434046
-0.00747226
0.00920163
-0.526121
0.524391
-0.0107062
0.0116963
-0.628478
0.627488
-0.0123153
0.012449
-0.749807
0.749674
-0.0121105
0.0113688
-0.895155
0.895897
-0.0100839
0.00849648
-1.06921
1.07079
-0.00631387
0.00394409
-1.27836
1.28073
-0.000951259
-0.00208426
-1.53126
1.5343
0.0050677
-0.00791322
-1.53165
1.53449
0.0101097
-0.012066
-1.27947
1.28143
0.0134045
-0.0143797
-1.07024
1.07121
0.0148332
-0.0148603
-0.895937
0.895964
0.0144509
-0.0135411
-0.750487
0.749577
0.0122979
-0.0105328
-0.628715
0.62695
0.00857978
-0.00621571
-0.525533
0.523169
0.00407298
-0.0021014
-0.422767
0.420796
0.000922731
-0.000273935
-0.264843
0.264195
4.91465e-05
-0.0511822
0.0511331
-0.0515896
0.0516156
-2.6076e-05
-0.000176724
0.00061043
-0.322066
0.321632
-0.00141932
0.00236342
-0.432669
0.431725
-0.0034762
0.00445223
-0.523061
0.522085
-0.00539511
0.00608836
-0.626626
0.625933
-0.00661397
0.00684881
-0.749453
0.749219
-0.00680132
0.00645719
-0.896404
0.896748
-0.00572472
0.00472506
-1.07206
1.07306
-0.00326133
0.00161263
-1.28273
1.28438
0.000476093
-0.00259155
-1.53686
1.53897
0.0046479
-0.00655029
-1.53685
1.53875
0.00792473
-0.009037
-1.28294
1.28405
0.00971509
-0.0100708
-1.07184
1.0722
0.0100632
-0.00972652
-0.895768
0.895431
0.00914918
-0.00826509
-0.748645
0.747761
0.00726663
-0.00601781
-0.625441
0.624192
0.00478425
-0.00340914
-0.521355
0.519979
0.00224204
-0.00120307
-0.41937
0.418331
0.000571936
-0.000193696
-0.263707
0.263328
4.13604e-05
-0.0510869
0.0510455
-0.0516485
0.0516886
-4.0156e-05
6.46776e-05
8.66903e-05
-0.321366
0.321214
-0.000413477
0.000818871
-0.431096
0.43069
-0.00131948
0.00177803
-0.5214
0.520942
-0.00224292
0.00259955
-0.625416
0.625059
-0.00288289
0.00301642
-0.749021
0.748887
-0.00299168
0.00278556
-0.896997
0.897203
-0.00232852
0.00168464
-1.07385
1.0745
-0.00071978
-0.000384713
-1.28572
1.28683
0.00178167
-0.00318367
-1.5407
1.5421
0.00451293
-0.00567657
-1.54026
1.54142
0.00645244
-0.00698013
-1.28483
1.28536
0.00720276
-0.0071974
-1.07235
1.07234
0.00697451
-0.00653548
-0.895022
0.894583
0.00599132
-0.00527862
-0.74696
0.746248
0.00455488
-0.00371897
-0.623173
0.622337
0.00294688
-0.00212759
-0.51893
0.518111
0.00145037
-0.000841657
-0.417552
0.416944
0.000446248
-0.00017613
-0.263018
0.262748
4.58068e-05
-0.0510035
0.0509577
-0.0517365
0.0517921
-5.56215e-05
0.000221381
-0.000236244
-0.321163
0.321178
0.000166487
-4.45401e-05
-0.430447
0.430325
-0.00011854
0.000268785
-0.520656
0.520506
-0.000416083
0.000517829
-0.62484
0.624738
-0.000574882
0.000559429
-0.748828
0.748843
-0.000445679
0.00023344
-0.897401
0.897613
0.000140634
-0.000621987
-1.07504
1.07552
0.00130917
-0.00207165
-1.28774
1.2885
0.00301561
-0.00393022
-1.54324
1.54415
0.00474941
-0.00540637
-1.5423
1.54296
0.00575973
-0.00590778
-1.28569
1.28584
0.00589921
-0.00570109
-1.07223
1.07203
0.00538884
-0.00493575
-0.894134
0.893681
0.00445029
-0.00387029
-0.74561
0.74503
0.00331939
-0.00271411
-0.621637
0.621032
0.00217592
-0.00161822
-0.517449
0.516891
0.00115772
-0.000729286
-0.416445
0.416017
0.000425459
-0.000188255
-0.2625
0.262263
5.51513e-05
-0.0509075
0.0508523
-0.0518543
0.051924
-6.96893e-05
0.000355399
-0.00047184
-0.321242
0.321358
0.000552897
-0.000605189
-0.430299
0.430351
0.000654214
-0.000705115
-0.520466
0.520517
0.000777224
-0.000866279
-0.624739
0.624828
0.000998723
-0.00116153
-0.748934
0.749097
0.00139789
-0.00167762
-0.897854
0.898134
0.00206502
-0.00249761
-1.07597
1.0764
0.00305734
-0.00363342
-1.28915
1.28973
0.0043025
-0.00490154
-1.54489
1.54549
0.0053808
-0.00569568
-1.54344
1.54375
0.00580615
-0.00574552
-1.28585
1.28579
0.00552864
-0.00519429
-1.07176
1.07142
0.00481278
-0.0043381
-0.89322
0.892745
0.00387469
-0.0033536
-0.744489
0.743968
0.00287967
-0.00237486
-0.620489
0.619985
0.00193526
-0.00148405
-0.5164
0.515949
0.00110757
-0.000742676
-0.41563
0.415265
0.000461977
-0.000218861
-0.262027
0.261784
6.82566e-05
-0.0507911
0.0507229
-0.0520034
0.0520941
-9.07735e-05
0.000499207
-0.000708987
-0.321524
0.321734
0.000913793
-0.00109078
-0.430468
0.430645
0.00128986
-0.00148653
-0.520644
0.520841
0.00172393
-0.00196481
-0.624996
0.625236
0.00225915
-0.00256005
-0.749329
0.74963
0.00292934
-0.00330587
-0.898459
0.898836
0.00376302
-0.00421799
-1.07684
1.07729
0.00474825
-0.00524205
-1.29026
1.29075
0.0057581
-0.00615611
-1.54598
1.54637
0.00640292
-0.00646418
-1.54393
1.54399
0.00635828
-0.00611709
-1.28565
1.28541
0.00579049
-0.0053499
-1.07103
1.07059
0.00489953
-0.00437853
-0.892251
0.89173
0.00389402
-0.00336816
-0.743451
0.742925
0.00290207
-0.00241456
-0.619497
0.619009
0.00199488
-0.00156555
-0.515517
0.515088
0.00120302
-0.000839242
-0.414907
0.414543
0.000541923
-0.000266332
-0.261527
0.261252
8.56661e-05
-0.0506464
0.0505608
-0.052197
0.0523133
-0.000116232
0.000661341
-0.000961545
-0.321988
0.322288
0.00127876
-0.00156919
-0.430879
0.43117
0.00190274
-0.00223043
-0.521104
0.521431
0.00261857
-0.0030015
-0.625548
0.625931
0.00345306
-0.00389515
-0.75
0.750442
0.00441101
-0.00490797
-0.89927
0.899767
0.00547432
-0.00600054
-1.07778
1.0783
0.00656808
-0.007051
-1.29123
1.29171
0.00749849
-0.00777762
-1.5467
1.54698
0.00786657
-0.00774889
-1.54395
1.54384
0.00748162
-0.00706161
-1.28507
1.28465
0.00660216
-0.00603744
-1.07009
1.06953
0.00549314
-0.00488609
-0.891172
0.890565
0.00433691
-0.0037526
-0.742377
0.741792
0.00324218
-0.0027137
-0.618508
0.617979
0.00226164
-0.00179969
-0.514648
0.514186
0.00140617
-0.00100215
-0.414164
0.41376
0.000659577
-0.000329951
-0.260952
0.260622
0.000107636
-0.0504648
0.0503572
-0.0524448
0.0525937
-0.000148934
0.000859613
-0.00126209
-0.322637
0.32304
0.00169992
-0.00210872
-0.431518
0.431927
0.0025814
-0.00304494
-0.521825
0.522289
0.00359057
-0.00412415
-0.626387
0.626921
0.0047459
-0.00534524
-0.75096
0.751559
0.00603104
-0.00667581
-0.900334
0.900978
0.00738883
-0.00802713
-1.07888
1.07952
0.00868383
-0.0092077
-1.29221
1.29273
0.00964498
-0.00985577
-1.54722
1.54743
0.00982677
-0.00955155
-1.54364
1.54336
0.00913237
-0.00854115
-1.28415
1.28356
0.00792701
-0.00720759
-1.06889
1.06817
0.00653325
-0.00579672
-0.889899
0.889162
0.00514023
-0.00444942
-0.74116
0.74047
0.00385061
-0.00323416
-0.617412
0.616796
0.00270852
-0.0021716
-0.513691
0.513154
0.00171175
-0.00123334
-0.413323
0.412844
0.000819428
-0.000413365
-0.260257
0.259851
0.000135688
-0.0502363
0.0501007
-0.0527627
0.0529543
-0.000191668
0.0011122
-0.00163906
-0.323501
0.324028
0.00221856
-0.00276359
-0.4324
0.432945
0.00339534
-0.00401447
-0.522827
0.523446
0.00474136
-0.00544949
-0.627538
0.628246
0.00627038
-0.00705633
-0.752248
0.753033
0.00794752
-0.00877566
-0.90171
0.902538
0.00967756
-0.0104692
-1.08023
1.08102
0.0112615
-0.0118684
-1.29329
1.2939
0.0123374
-0.0125101
-1.54762
1.5478
0.0123796
-0.0119462
-1.54301
1.54258
0.0113597
-0.010574
-1.28287
1.28209
0.00977855
-0.00886409
-1.06736
1.06645
0.00801884
-0.007105
-0.888343
0.887429
0.00629674
-0.00545103
-0.739708
0.738862
0.00472112
-0.00397192
-0.616119
0.615369
0.00333424
-0.00268298
-0.512565
0.511914
0.00212367
-0.00153786
-0.412317
0.411731
0.00102599
-0.000519291
-0.259398
0.258891
0.00017081
-0.0499484
0.0497776
-0.0531724
0.0534199
-0.000247518
0.00143801
-0.00212169
-0.324628
0.325312
0.00287683
-0.00358901
-0.433569
0.434281
0.00441503
-0.00522392
-0.524154
0.524963
0.00617182
-0.00709315
-0.629055
0.629976
0.00815799
-0.00917345
-0.753928
0.754943
0.0103191
-0.0113767
-0.903474
0.904532
0.0125186
-0.0135091
-1.0819
1.0829
0.0144843
-0.0152116
-1.29456
1.29529
0.0157437
-0.0158936
-1.54796
1.54811
0.01566
-0.0150497
-1.54206
1.54145
0.0142654
-0.013243
-1.28119
1.28017
0.0122225
-0.0110608
-1.06542
1.06426
0.00999512
-0.00884914
-0.886407
0.885261
0.00783975
-0.00678662
-0.73792
0.736867
0.00587952
-0.00494972
-0.614536
0.613606
0.00415908
-0.0033518
-0.51119
0.510383
0.00265774
-0.00192856
-0.411078
0.410349
0.00128858
-0.000652785
-0.258324
0.257688
0.000214733
-0.049586
0.0493713
-0.053703
0.0540242
-0.000321155
0.00186365
-0.0027494
-0.326089
0.326975
0.00372898
-0.00465349
-0.43509
0.436015
0.00572522
-0.00677303
-0.525884
0.526931
0.00799853
-0.00918729
-0.631024
0.632213
0.0105579
-0.0118613
-0.756095
0.757399
0.0133265
-0.0146728
-0.905726
0.907072
0.0161172
-0.0173596
-1.084
1.08525
0.0185676
-0.0194511
-1.29609
1.29698
0.0200697
-0.0201996
-1.54825
1.54838
0.0198451
-0.0190204
-1.54074
1.53991
0.0179927
-0.0166736
-1.27901
1.27769
0.0153694
-0.0138937
-1.06295
1.06147
0.012546
-0.0111016
-0.883975
0.88253
0.0098325
-0.00851088
-0.735687
0.734366
0.00737405
-0.00620981
-0.612567
0.611403
0.00522024
-0.00420978
-0.509481
0.508471
0.00334024
-0.00242519
-0.409533
0.408618
0.00162066
-0.000820619
-0.256975
0.256175
0.000269658
-0.0491306
0.048861
-0.0543942
0.0548138
-0.000419629
0.0024274
-0.00357852
-0.32798
0.329131
0.00485183
-0.00605252
-0.43706
0.438261
0.00744135
-0.0087945
-0.528121
0.529474
0.0103727
-0.0119004
-0.633564
0.635092
0.0136578
-0.0153252
-0.758876
0.760544
0.0171935
-0.0189029
-0.90859
0.910299
0.020726
-0.0222818
-1.08664
1.08819
0.0237772
-0.0248506
-1.29795
1.29902
0.0255703
-0.0256688
-1.54849
1.54859
0.0251577
-0.0240607
-1.53896
1.53786
0.0227252
-0.0210312
-1.27619
1.2745
0.0193682
-0.0174956
-1.05981
1.05793
0.015791
-0.0139686
-0.880907
0.879085
0.0123698
-0.0107067
-0.732882
0.731219
0.00927694
-0.00781309
-0.610098
0.608634
0.00656869
-0.00529747
-0.50734
0.506068
0.00420284
-0.0030504
-0.407593
0.406441
0.00203718
-0.00103029
-0.255278
0.254271
0.000337969
-0.0485593
0.0482214
-0.0553012
0.055857
-0.000555867
0.00319133
-0.00469927
-0.330433
0.331941
0.00636609
-0.00793093
-0.439609
0.441174
0.00972971
-0.0114722
-0.531014
0.532756
0.0134965
-0.0154527
-0.636838
0.638794
0.0176999
-0.019829
-0.762438
0.764567
0.0222076
-0.0243738
-0.912223
0.91439
0.0266686
-0.0286087
-1.08993
1.09187
0.0304486
-0.0317412
-1.3002
1.30149
0.0325642
-0.0326017
-1.54867
1.5487
0.0318772
-0.0304266
-1.5366
1.53515
0.0286988
-0.0265304
-1.27258
1.27041
0.0244152
-0.022043
-1.05582
1.05345
0.0198899
-0.0175924
-0.877033
0.874736
0.01558
-0.0134882
-0.729349
0.727258
0.0116903
-0.00984837
-0.606992
0.60515
0.00828068
-0.00667676
-0.504648
0.503044
0.00529407
-0.00383836
-0.405152
0.403697
0.0025605
-0.00129317
-0.253143
0.251876
0.000423706
-0.0478443
0.0474206
-0.0565016
0.0572568
-0.00075521
0.00426765
-0.00626788
-0.333628
0.335628
0.00846543
-0.0105015
-0.442919
0.444955
0.0128137
-0.0150372
-0.53477
0.536993
0.0176143
-0.0201097
-0.641062
0.643558
0.0229819
-0.0257036
-0.766991
0.769712
0.0287343
-0.0314774
-0.916814
0.919557
0.0343555
-0.0367585
-1.09401
1.09642
0.0389979
-0.0405278
-1.30289
1.30442
0.0414356
-0.0413579
-1.54869
1.54861
0.0403365
-0.0384242
-1.53348
1.53157
0.0361967
-0.0334321
-1.26796
1.26519
0.0307527
-0.027759
-1.05078
1.04778
0.0250496
-0.022164
-0.872145
0.86926
0.01964
-0.0170184
-0.724897
0.722276
0.0147646
-0.0124521
-0.603082
0.60077
0.0104781
-0.00845057
-0.501262
0.499234
0.00669678
-0.00484872
-0.402082
0.400234
0.00323073
-0.0016308
-0.25046
0.24886
0.000535115
-0.0469521
0.046417
-0.0581119
0.0591706
-0.00105871
0.00584073
-0.00852405
-0.337822
0.340505
0.0114149
-0.0140266
-0.44726
0.449871
0.0169468
-0.0197492
-0.539679
0.542482
0.0230166
-0.0262097
-0.64652
0.649713
0.0299059
-0.0334071
-0.772794
0.776295
0.0372808
-0.0407489
-0.922574
0.926042
0.0443359
-0.0472762
-1.09902
1.10196
0.0499515
-0.0517098
-1.30604
1.30779
0.0526472
-0.0523634
-1.54842
1.54814
0.0509277
-0.0484157
-1.52937
1.52685
0.0455585
-0.0420553
-1.26207
1.25857
0.0386818
-0.034927
-1.04441
1.04066
0.0315379
-0.027936
-0.865991
0.862389
0.0247912
-0.0215283
-0.719293
0.71603
0.0187227
-0.0158385
-0.598159
0.595274
0.0133637
-0.010802
-0.497001
0.494439
0.0085663
-0.00619657
-0.398222
0.395852
0.00412526
-0.00208397
-0.247091
0.24505
0.000688133
-0.0458416
0.0451534
-0.0603244
0.061851
-0.00152659
0.00820673
-0.0118306
-0.343408
0.347032
0.0155992
-0.0189033
-0.453017
0.456322
0.0225557
-0.026101
-0.546124
0.549669
0.0303056
-0.0344611
-0.65356
0.657716
0.0392797
-0.0438027
-0.780156
0.784679
0.0487303
-0.0530579
-0.929731
0.934058
0.0574381
-0.0609376
-1.10504
1.10854
0.0640155
-0.0659262
-1.30955
1.31146
0.0667636
-0.0661217
-1.54764
1.547
0.0641074
-0.0608224
-1.52395
1.52066
0.0571856
-0.0527856
-1.25461
1.25021
0.0485781
-0.0439111
-1.03642
1.03175
0.0397074
-0.035247
-0.85828
0.853819
0.0313599
-0.0273344
-0.712253
0.708228
0.0238764
-0.0203195
-0.591957
0.5884
0.0172503
-0.0140365
-0.491633
0.488419
0.0111821
-0.00810355
-0.393373
0.390294
0.00539607
-0.00272796
-0.242865
0.240197
0.000908295
-0.0444606
0.0435523
-0.0634718
0.0657712
-0.0022994
0.0120191
-0.0169795
-0.350983
0.355943
0.0219061
-0.0261364
-0.460725
0.464955
0.0307943
-0.0354109
-0.554593
0.55921
0.0409748
-0.0464616
-0.662622
0.668109
0.0527259
-0.0584593
-0.789441
0.795175
0.0645395
-0.0697302
-0.93848
0.943671
0.0748325
-0.078771
-1.11204
1.11598
0.0820666
-0.0839266
-1.31322
1.31508
0.0844106
-0.0831668
-1.54599
1.54474
0.0803453
-0.0760742
-1.51685
1.51258
0.071491
-0.0660288
-1.24525
1.23979
0.0608473
-0.0551209
-1.0265
1.02077
0.0499665
-0.0444969
-0.848698
0.843228
0.0397311
-0.0348005
-0.70346
0.69853
0.0305708
-0.0262252
-0.584157
0.579811
0.0224621
-0.01848
-0.484846
0.480864
0.0148609
-0.0108446
-0.387251
0.383235
0.00724315
-0.00365548
-0.23755
0.233963
0.00121574
-0.0427264
0.0415107
-0.0681469
0.0719565
-0.00380955
0.0189114
-0.0258355
-0.361543
0.368467
0.0323052
-0.0377788
-0.471235
0.476709
0.0438936
-0.0500518
-0.565768
0.571926
0.0574477
-0.0645498
-0.674253
0.681355
0.0723716
-0.0792666
-0.800959
0.807854
0.0863362
-0.0921716
-0.948803
0.954638
0.097698
-0.101763
-1.11974
1.1238
0.104903
-0.106356
-1.31658
1.31803
0.106103
-0.103918
-1.54294
1.54075
0.099998
-0.0944972
-1.50764
1.50214
0.0887922
-0.0821139
-1.23368
1.227
0.0758407
-0.0689371
-1.01437
1.00747
0.0627243
-0.0561159
-0.836964
0.830356
0.0503376
-0.0443408
-0.692606
0.686609
0.0391835
-0.0338756
-0.574412
0.569104
0.0292644
-0.0243569
-0.476243
0.471335
0.0198031
-0.0146112
-0.379407
0.374215
0.00981976
-0.00494496
-0.230732
0.225857
0.00161715
-0.0404875
0.0388703
-0.0755602
0.0828543
-0.00729404
0.033
-0.0430125
-0.377107
0.38712
0.0513162
-0.058304
-0.485799
0.492787
0.0663555
-0.0744147
-0.580409
0.588468
0.0837164
-0.0921839
-0.688823
0.69729
0.101081
-0.108613
-0.81455
0.822082
0.116057
-0.121953
-0.960126
0.966022
0.127262
-0.130859
-1.12735
1.13094
0.133232
-0.133733
-1.3188
1.3193
0.13222
-0.128667
-1.53774
1.53419
0.123321
-0.116352
-1.49582
1.48885
0.109374
-0.101385
-1.21961
1.21162
0.0939654
-0.0858579
-0.999858
0.991751
0.0785746
-0.0708179
-0.822918
0.815161
0.0640061
-0.0568966
-0.67948
0.672371
0.0507369
-0.044359
-0.562431
0.556053
0.0388046
-0.0328645
-0.465377
0.459437
0.0271844
-0.0203164
-0.369123
0.362255
0.013613
-0.00668272
-0.221556
0.214625
0.0020824
-0.0375286
0.0354462
-0.0901177
0.09295
-0.00283234
0.0201344
-0.0289896
-0.400468
0.409323
0.0372705
-0.045
-0.505308
0.513037
0.0543419
-0.0640885
-0.598324
0.608071
0.0747533
-0.0842566
-0.705466
0.714969
0.0948268
-0.104173
-0.828899
0.838245
0.113873
-0.122183
-0.971017
0.979327
0.13044
-0.137067
-1.1335
1.14012
0.142986
-0.1469
-1.31869
1.3226
0.149062
-0.14861
-1.5295
1.52904
0.145401
-0.139809
-1.48089
1.4753
0.133135
-0.124567
-1.20288
1.19431
0.116109
-0.105862
-0.982969
0.972722
0.0963615
-0.0858041
-0.806646
0.796088
0.0762653
-0.0660391
-0.664162
0.653936
0.0567337
-0.0471555
-0.548175
0.538597
0.0389634
-0.0299237
-0.451977
0.442937
0.0216911
-0.0130622
-0.355477
0.346849
0.00642568
-0.00181474
-0.208219
0.203608
-4.29694e-05
-0.0334102
0.0334532
-0.100033
0.0954875
0.00454531
-0.00366566
-0.00151872
-0.421404
0.426588
0.00885394
-0.0158794
-0.524542
0.531567
0.0246859
-0.033027
-0.617938
0.626279
0.0424887
-0.0511199
-0.72442
0.733051
0.0603256
-0.0686694
-0.847084
0.855428
0.0773429
-0.0845167
-0.987341
0.994515
0.0918818
-0.0974979
-1.14664
1.15225
0.102519
-0.105612
-1.32638
1.32947
0.106817
-0.10576
-1.52803
1.52698
0.102169
-0.0964534
-1.46922
1.46351
0.0897279
-0.0814056
-1.18559
1.17727
0.0733835
-0.0641802
-0.962579
0.953376
0.0555409
-0.0459268
-0.785228
0.775614
0.0373205
-0.0284871
-0.642436
0.633603
0.0209666
-0.013251
-0.526962
0.519246
0.00668503
-0.000312133
-0.431333
0.424961
-0.00449371
0.00795435
-0.336286
0.332825
-0.00837519
0.00596586
-0.196538
0.198947
-0.00267265
-0.0319554
0.034628
-0.0973048
0.0929853
0.00431943
-0.0102209
0.0080612
-0.435586
0.437745
-0.0032513
-0.0023479
-0.540821
0.54642
0.00935091
-0.0162931
-0.634774
0.641716
0.0241317
-0.0313146
-0.741154
0.748337
0.0391898
-0.0461999
-0.863076
0.870086
0.053298
-0.0595333
-1.00149
1.00773
0.0657892
-0.0707011
-1.15749
1.1624
0.0747545
-0.0771478
-1.33208
1.33447
0.07814
-0.0770194
-1.5256
1.52448
0.0736838
-0.068596
-1.45776
1.45267
0.0627924
-0.0559153
-1.16948
1.1626
0.049094
-0.0416378
-0.944616
0.93716
0.0348009
-0.0273556
-0.767006
0.759561
0.0210261
-0.01457
-0.624965
0.618509
0.00932084
-0.00398752
-0.510515
0.505181
-6.63882e-05
0.00362208
-0.416693
0.413138
-0.00610038
0.00724472
-0.326254
0.32511
-0.0061797
0.0036753
-0.195326
0.19783
-0.0015639
-0.0343026
0.0358665
-0.0936478
0.0897818
0.00386596
-0.0116969
0.0112701
-0.444532
0.444959
-0.00811098
0.00364572
-0.553348
0.557814
0.00220663
-0.00773977
-0.64834
0.653873
0.0141412
-0.0200408
-0.755211
0.761111
0.0264846
-0.0322498
-0.876605
0.88237
0.0384666
-0.0435888
-1.01354
1.01866
0.0489524
-0.0527938
-1.16698
1.17082
0.0563191
-0.0584259
-1.33683
1.33894
0.0592133
-0.0580195
-1.52329
1.52209
0.0553014
-0.0511749
-1.44762
1.4435
0.0464273
-0.0405759
-1.15616
1.15031
0.0351372
-0.0293168
-0.930158
0.924338
0.0239014
-0.0183833
-0.752872
0.747354
0.0134116
-0.00860342
-0.612045
0.607237
0.0047225
-0.00115735
-0.499164
0.495599
-0.0013971
0.00359238
-0.407226
0.405031
-0.00506718
0.00536722
-0.32017
0.31987
-0.00454026
0.00275328
-0.194641
0.196428
-0.00119272
-0.0349743
0.036167
-0.0905646
0.0876053
0.00295925
-0.0105588
0.0112099
-0.450303
0.449652
-0.00877315
0.00537887
-0.563489
0.566884
-0.000867362
-0.00383349
-0.659336
0.664037
0.00889338
-0.0138097
-0.766548
0.771465
0.0190823
-0.0238352
-0.887711
0.892464
0.0289291
-0.0333332
-1.02364
1.02805
0.0377531
-0.0412666
-1.17458
1.1781
0.0443281
-0.0462014
-1.34085
1.34272
0.04699
-0.0460559
-1.52105
1.52012
0.0438656
-0.0403336
-1.43921
1.43568
0.0364285
-0.0317604
-1.14496
1.14029
0.0273495
-0.0225335
-0.918783
0.913967
0.0182639
-0.0138186
-0.742084
0.737639
0.0100031
-0.00620953
-0.602492
0.598698
0.00323465
-0.000527718
-0.49109
0.488383
-0.00154585
0.00317054
-0.400682
0.399058
-0.00399629
0.00432026
-0.315847
0.315523
-0.0037244
0.00212452
-0.193125
0.194725
-0.000958566
-0.0351418
0.0361004
-0.088524
0.086215
0.002309
-0.00884058
0.00957372
-0.454126
0.453393
-0.00822157
0.00546725
-0.571007
0.573761
-0.00149644
-0.00221823
-0.668185
0.671899
0.0062834
-0.0103118
-0.77578
0.779808
0.0147538
-0.0188017
-0.896886
0.900934
0.0232859
-0.0269992
-1.03218
1.03589
0.0308776
-0.0340021
-1.18139
1.18452
0.0367147
-0.0384141
-1.34447
1.34617
0.0391972
-0.0388298
-1.51934
1.51897
0.0370197
-0.0342203
-1.4321
1.4293
0.0309296
-0.0269757
-1.13583
1.13188
0.0234547
-0.0192678
-0.909396
0.905209
0.0156148
-0.0119515
-0.733395
0.729732
0.00874131
-0.00553341
-0.595007
0.591799
0.002961
-0.000449867
-0.484824
0.482313
-0.00115315
0.00250511
-0.395491
0.394139
-0.00342678
0.00368134
-0.312007
0.311752
-0.00310806
0.00182881
-0.1916
0.192879
-0.00079513
-0.0350353
0.0358305
-0.0873022
0.0855817
0.00172056
-0.00696937
0.00777656
-0.456981
0.456174
-0.00660375
0.0045837
-0.577307
0.579327
-0.00124319
-0.00187067
-0.67536
0.678474
0.00553204
-0.00876666
-0.783567
0.786802
0.0124322
-0.0158227
-0.90494
0.908331
0.0199242
-0.0231604
-1.03961
1.04285
0.0264766
-0.0293805
-1.18749
1.19039
0.0322422
-0.03386
-1.34798
1.3496
0.0348395
-0.0346396
-1.51842
1.51822
0.0334965
-0.0309561
-1.42656
1.42402
0.0282909
-0.0250094
-1.12803
1.12475
0.0218354
-0.018323
-0.901282
0.89777
0.0150507
-0.0116203
-0.725991
0.722561
0.00895703
-0.00597533
-0.588498
0.585517
0.00350669
-0.00132308
-0.47924
0.477057
-0.000325795
0.00177373
-0.391113
0.389665
-0.00255695
0.00285913
-0.308757
0.308455
-0.00245662
0.00146065
-0.190053
0.191049
-0.000653612
-0.0347745
0.0354281
-0.0867823
0.0854268
0.00135551
-0.00543172
0.00621417
-0.459286
0.458503
-0.00509922
0.00325449
-0.582447
0.584291
-0.000432906
-0.00214067
-0.681398
0.683972
0.0050397
-0.00802721
-0.79007
0.793057
0.011227
-0.0146337
-0.911522
0.914929
0.0179301
-0.0208881
-1.04611
1.04907
0.0242291
-0.0268417
-1.19318
1.19579
0.0292257
-0.0312527
-1.3512
1.35322
0.0324778
-0.0326662
-1.51822
1.51841
0.0318218
-0.0299703
-1.42185
1.42
0.0277094
-0.0247929
-1.12133
1.11841
0.0219962
-0.0187624
-0.894262
0.891029
0.0157468
-0.0126859
-0.719251
0.71619
0.00988669
-0.00710792
-0.582418
0.579639
0.00482421
-0.00249903
-0.474287
0.471962
0.000729123
0.000546847
-0.386816
0.38554
-0.00144468
0.00197706
-0.305614
0.305082
-0.00186252
0.00110973
-0.188425
0.189178
-0.00052124
-0.0344114
0.0349326
-0.0868033
0.0855872
0.0012161
-0.00408007
0.00455024
-0.461443
0.460973
-0.00364612
0.00190302
-0.586881
0.588624
0.000454514
-0.00281936
-0.68667
0.689035
0.00547193
-0.00800141
-0.795911
0.79844
0.0112054
-0.013771
-0.917774
0.92034
0.0169108
-0.0195779
-1.05212
1.05479
0.0226901
-0.0253993
-1.19835
1.20106
0.02799
-0.0297889
-1.35505
1.35685
0.0313636
-0.0320049
-1.51865
1.5193
0.0318468
-0.030357
-1.41818
1.41669
0.0285181
-0.0259297
-1.11568
1.11309
0.0233886
-0.0202877
-0.887659
0.884558
0.0174895
-0.0143941
-0.712945
0.70985
0.0116396
-0.00880194
-0.576684
0.573846
0.00636195
-0.00415702
-0.469242
0.467037
0.00221838
-0.000733421
-0.382623
0.381138
-0.000409641
0.00109243
-0.302356
0.301674
-0.00117312
0.000818452
-0.186534
0.186889
-0.00036626
-0.0338974
0.0342636
-0.0869792
0.0860131
0.000966087
-0.00307206
0.00307833
-0.463771
0.463765
-0.00237137
0.000689713
-0.59051
0.592191
0.00125412
-0.00343745
-0.691292
0.693475
0.00586027
-0.00842843
-0.800882
0.80345
0.0109602
-0.0135653
-0.923063
0.925668
0.016538
-0.0188836
-1.0578
1.06014
0.0219369
-0.0244818
-1.20352
1.20607
0.0270238
-0.029281
-1.35905
1.3613
0.031322
-0.0322985
-1.52009
1.52107
0.0324681
-0.031727
-1.4155
1.41476
0.0304162
-0.0281204
-1.11048
1.10818
0.0257041
-0.022918
-0.881425
0.878639
0.0198385
-0.0168812
-0.706536
0.703579
0.0140876
-0.0110798
-0.57102
0.568012
0.00866271
-0.00617192
-0.464103
0.461612
0.00413579
-0.00222122
-0.37847
0.376556
0.00093451
3.18707e-05
-0.298944
0.297977
-0.000521534
0.000509304
-0.184374
0.184386
-0.00027644
-0.0331416
0.0334181
-0.0874071
0.0865533
0.000853811
-0.00234725
0.00242015
-0.466202
0.466129
-0.00119001
-0.000181703
-0.594117
0.595489
0.00218268
-0.00418609
-0.695331
0.697334
0.00639952
-0.00853168
-0.805729
0.807861
0.0110837
-0.013288
-0.928235
0.930439
0.0160755
-0.0186906
-1.06285
1.06546
0.0212461
-0.0239582
-1.20859
1.2113
0.0267569
-0.029014
-1.36344
1.3657
0.031399
-0.0331909
-1.52236
1.52415
0.0339144
-0.0339157
-1.41408
1.41409
0.0328975
-0.0310511
-1.10602
1.10418
0.0289614
-0.0261833
-0.875517
0.872739
0.0232664
-0.0201726
-0.700165
0.697071
0.0172634
-0.0140238
-0.564852
0.561613
0.0113076
-0.00865818
-0.458686
0.456037
0.00623895
-0.0040768
-0.37378
0.371618
0.00246441
-0.00117682
-0.2951
0.293813
0.000391861
5.99905e-05
-0.181902
0.18145
-0.000128807
-0.032213
0.0323418
-0.0879808
0.0872574
0.000723449
-0.00158503
0.00147712
-0.468657
0.468765
-0.000414769
-0.00111081
-0.597223
0.598749
0.0029679
-0.00476097
-0.699035
0.700828
0.00698341
-0.00890809
-0.809965
0.81189
0.0112242
-0.0134389
-0.933033
0.935248
0.015997
-0.0184325
-1.06786
1.0703
0.0210143
-0.0235859
-1.21387
1.21644
0.0263881
-0.0292301
-1.36821
1.37105
0.0319774
-0.0341287
-1.52597
1.52812
0.0357021
-0.0362572
-1.41421
1.41477
0.03596
-0.0347697
-1.10245
1.10126
0.0327647
-0.0301467
-0.869785
0.867167
0.0272708
-0.0239487
-0.693639
0.690317