/*--------------------------------*- C++ -*----------------------------------*\
  =========                 |
  \\      /  F ield         | OpenFOAM: The Open Source CFD Toolbox
   \\    /   O peration     | Website:  https://openfoam.org
    \\  /    A nd           | Version:  9
     \\/     M anipulation  |
\*---------------------------------------------------------------------------*/
FoamFile
{
    format      ascii;
    class       volVectorField;
    location    "7";
    object      U;
}
// * * * * * * * * * * * * * * * * * * * * * * * * * * * * * * * * * * * * * //

dimensions      [0 1 -1 0 0 0 0];

internalField   nonuniform List<vector> 
8800
(
(0.979716 -0.0914196 0)
(1.00228 -0.0587335 0)
(0.999627 -0.0318079 0)
(0.999628 -0.0158201 0)
(0.999665 -0.00812935 0)
(0.999899 -0.00469078 0)
(0.999958 -0.00283068 0)
(0.999963 -0.00166491 0)
(0.999974 -0.000819529 0)
(1.00005 -0.000136815 0)
(0.999987 0.000543872 0)
(0.999963 0.00129595 0)
(0.999962 0.0022746 0)
(0.999947 0.00371818 0)
(0.999745 0.00613996 0)
(0.999576 0.011267 0)
(0.9997 0.0225686 0)
(0.99928 0.0430392 0)
(1.00683 0.0791065 0)
(0.774988 0.0478455 0)
(0.360267 -0.0145785 0)
(1.04747 -0.0714751 0)
(1.08777 -0.0650045 0)
(1.0492 -0.0502882 0)
(1.0261 -0.0373729 0)
(1.01332 -0.0252328 0)
(1.0068 -0.0156583 0)
(1.00375 -0.00916927 0)
(1.0022 -0.00479935 0)
(1.00148 -0.00170518 0)
(1.00137 0.000754833 0)
(1.00175 0.00346954 0)
(1.00282 0.00703399 0)
(1.00496 0.0122925 0)
(1.00944 0.0202521 0)
(1.01871 0.0312765 0)
(1.0362 0.0440623 0)
(1.06649 0.056976 0)
(1.09465 0.0699878 0)
(0.847193 0.0551313 0)
(0.222687 -0.00116095 0)
(1.07878 -0.0467933 0)
(1.10023 -0.0440142 0)
(1.06409 -0.0346584 0)
(1.03947 -0.0273688 0)
(1.0234 -0.0211737 0)
(1.01347 -0.0153977 0)
(1.00788 -0.0100943 0)
(1.0051 -0.00546422 0)
(1.00407 -0.000847767 0)
(1.00436 0.00392635 0)
(1.00615 0.00832064 0)
(1.01012 0.0132088 0)
(1.01762 0.018686 0)
(1.03025 0.0244508 0)
(1.05035 0.0311407 0)
(1.08031 0.0390114 0)
(1.10805 0.0474856 0)
(0.949585 0.0385375 0)
(0.222453 0.0011689 0)
(0.187853 -0.000283714 0)
(1.02969 -0.0265364 0)
(1.10724 -0.0323663 0)
(1.07678 -0.0292661 0)
(1.05036 -0.0251421 0)
(1.03299 -0.0206551 0)
(1.0218 -0.0159601 0)
(1.01466 -0.0110685 0)
(1.01048 -0.00597637 0)
(1.00881 -0.000796986 0)
(1.00925 0.00425423 0)
(1.01207 0.00933028 0)
(1.01755 0.0142095 0)
(1.02647 0.0188965 0)
(1.04037 0.0234402 0)
(1.06171 0.0275352 0)
(1.09406 0.0314435 0)
(1.09923 0.0318213 0)
(0.851293 0.0162958 0)
(0.187483 0.000290444 0)
(0.179634 4.09651e-05 0)
(0.986075 -0.00983614 0)
(1.09697 -0.0187333 0)
(1.07738 -0.0222428 0)
(1.05261 -0.0228662 0)
(1.03618 -0.0210359 0)
(1.02513 -0.017513 0)
(1.0179 -0.0128171 0)
(1.01351 -0.00723681 0)
(1.01155 -0.000895436 0)
(1.01205 0.00551764 0)
(1.01506 0.011339 0)
(1.02071 0.0163076 0)
(1.02962 0.0202867 0)
(1.04303 0.0228479 0)
(1.06323 0.0233741 0)
(1.09121 0.0212917 0)
(1.07477 0.0154626 0)
(0.800057 0.00408339 0)
(0.179072 -3.31978e-05 0)
(0.178561 1.64656e-05 0)
(0.95771 -0.00459213 0)
(1.07759 -0.0130857 0)
(1.07114 -0.0192144 0)
(1.05387 -0.0211349 0)
(1.04147 -0.0203629 0)
(1.03231 -0.0175175 0)
(1.02562 -0.0130908 0)
(1.02113 -0.00742572 0)
(1.01882 -0.000655287 0)
(1.01941 0.00625376 0)
(1.02254 0.012265 0)
(1.02795 0.0170636 0)
(1.03567 0.0204427 0)
(1.04609 0.0219227 0)
(1.06114 0.0215469 0)
(1.07797 0.0172047 0)
(1.04805 0.00919665 0)
(0.778311 0.00161042 0)
(0.177764 -7.10302e-06 0)
(0.178345 3.24041e-05 0)
(0.940351 -0.00187448 0)
(1.05759 -0.0075771 0)
(1.06025 -0.0131917 0)
(1.05083 -0.0162917 0)
(1.04216 -0.0167442 0)
(1.03495 -0.0150357 0)
(1.02917 -0.0115382 0)
(1.02496 -0.00659394 0)
(1.02275 -0.000252951 0)
(1.02319 0.0063454 0)
(1.02608 0.011784 0)
(1.03079 0.0156884 0)
(1.03708 0.017969 0)
(1.04494 0.0183237 0)
(1.05401 0.0162178 0)
(1.06144 0.0114832 0)
(1.02603 0.00490157 0)
(0.767676 0.000608003 0)
(0.177246 -1.87968e-05 0)
(0.178444 1.32887e-05 0)
(0.931858 -0.000844396 0)
(1.04493 -0.00379862 0)
(1.05194 -0.00731559 0)
(1.04776 -0.00981241 0)
(1.04288 -0.010827 0)
(1.03806 -0.0102535 0)
(1.03362 -0.00810862 0)
(1.03004 -0.00447582 0)
(1.02812 0.000492522 0)
(1.02831 0.0056504 0)
(1.03063 0.00965755 0)
(1.03413 0.0121131 0)
(1.03854 0.0129661 0)
(1.04323 0.0122493 0)
(1.04774 0.0100213 0)
(1.04962 0.00650917 0)
(1.01311 0.00260754 0)
(0.762648 0.000397162 0)
(0.177 3.49163e-06 0)
(0.178538 1.44742e-05 0)
(0.927973 -0.000285772 0)
(1.03829 -0.00163649 0)
(1.04654 -0.00347369 0)
(1.04475 -0.0050326 0)
(1.04208 -0.00589674 0)
(1.03903 -0.00580892 0)
(1.03587 -0.00458405 0)
(1.03308 -0.00214416 0)
(1.03137 0.00132444 0)
(1.0313 0.00488359 0)
(1.03288 0.00739614 0)
(1.03516 0.00864413 0)
(1.03788 0.00864914 0)
(1.04047 0.00761699 0)
(1.0426 0.005814 0)
(1.0423 0.00357867 0)
(1.00625 0.00145218 0)
(0.759839 0.000273262 0)
(0.176688 5.63524e-06 0)
(0.178769 1.77626e-05 0)
(0.926434 1.62415e-05 0)
(1.03527 -0.00052908 0)
(1.04381 -0.00135627 0)
(1.04305 -0.00212456 0)
(1.04157 -0.00259075 0)
(1.03965 -0.00254505 0)
(1.03744 -0.00177928 0)
(1.03528 -0.000169874 0)
(1.03372 0.0021447 0)
(1.03335 0.00444578 0)
(1.03417 0.00587275 0)
(1.03547 0.00629103 0)
(1.03697 0.00589995 0)
(1.03828 0.00491921 0)
(1.03922 0.00360849 0)
(1.03811 0.00220662 0)
(1.00251 0.000972192 0)
(0.75805 0.000238384 0)
(0.176396 1.01651e-05 0)
(0.179103 1.92017e-05 0)
(0.926132 0.000220142 0)
(1.0341 9.64389e-05 0)
(1.04267 -0.000172762 0)
(1.04232 -0.000416197 0)
(1.0414 -0.000508838 0)
(1.0401 -0.000317059 0)
(1.03849 0.000303174 0)
(1.03675 0.00144357 0)
(1.03524 0.00300618 0)
(1.03452 0.00442164 0)
(1.0347 0.0050861 0)
(1.03524 0.00505337 0)
(1.03592 0.00450022 0)
(1.0365 0.00362374 0)
(1.03687 0.00262467 0)
(1.03545 0.00164661 0)
(1.00011 0.000806925 0)
(0.756624 0.000247063 0)
(0.17605 1.46365e-05 0)
(0.179534 2.2643e-05 0)
(0.9265 0.000365361 0)
(1.03398 0.000504507 0)
(1.04251 0.000586537 0)
(1.04232 0.00070626 0)
(1.04165 0.000925603 0)
(1.04067 0.00131718 0)
(1.03935 0.00195865 0)
(1.0378 0.00288463 0)
(1.03623 0.00398835 0)
(1.03516 0.00482219 0)
(1.03472 0.0050654 0)
(1.03472 0.0046753 0)
(1.03485 0.00397994 0)
(1.03499 0.00314207 0)
(1.03506 0.00228247 0)
(1.03349 0.00148296 0)
(0.998254 0.000795958 0)
(0.755261 0.00028204 0)
(0.175627 1.95932e-05 0)
(0.180086 2.88943e-05 0)
(0.927459 0.000528279 0)
(1.03455 0.000869796 0)
(1.04303 0.00120151 0)
(1.04289 0.00159495 0)
(1.0423 0.00208197 0)
(1.04142 0.00269201 0)
(1.0402 0.00344639 0)
(1.03865 0.00431977 0)
(1.03689 0.00516639 0)
(1.03539 0.00559423 0)
(1.03448 0.00540525 0)
(1.03396 0.00483894 0)
(1.0337 0.00402966 0)
(1.03355 0.00315205 0)
(1.03343 0.00230663 0)
(1.03175 0.00154348 0)
(0.996531 0.000881749 0)
(0.753781 0.00033988 0)
(0.175097 2.54557e-05 0)
(0.180798 3.64551e-05 0)
(0.928927 0.000706104 0)
(1.03568 0.00123488 0)
(1.04408 0.00178977 0)
(1.04393 0.00243327 0)
(1.04334 0.00318008 0)
(1.04243 0.00403179 0)
(1.04114 0.00496462 0)
(1.03942 0.00589693 0)
(1.03733 0.00662575 0)
(1.03535 0.00677925 0)
(1.03394 0.0063048 0)
(1.03299 0.00548306 0)
(1.0324 0.00450284 0)
(1.03202 0.00350858 0)
(1.03175 0.00258242 0)
(1.02999 0.00176048 0)
(0.994705 0.00104188 0)
(0.75205 0.00041915 0)
(0.174433 3.24739e-05 0)
(0.18171 4.64411e-05 0)
(0.930944 0.000921121 0)
(1.03735 0.00165098 0)
(1.04566 0.00243704 0)
(1.04546 0.00334157 0)
(1.04478 0.00436986 0)
(1.04375 0.00550163 0)
(1.04226 0.0066752 0)
(1.04023 0.00775163 0)
(1.03765 0.00845914 0)
(1.03508 0.0084094 0)
(1.03312 0.00766506 0)
(1.03176 0.00656268 0)
(1.03085 0.00534593 0)
(1.03026 0.00415736 0)
(1.02986 0.00307109 0)
(1.02801 0.00211531 0)
(0.992603 0.00127542 0)
(0.749943 0.000524067 0)
(0.173596 4.11789e-05 0)
(0.182881 5.96555e-05 0)
(0.933607 0.00119337 0)
(1.03963 0.00215959 0)
(1.04782 0.00320997 0)
(1.04752 0.00441475 0)
(1.04671 0.00577232 0)
(1.04546 0.00724287 0)
(1.04364 0.00872678 0)
(1.04113 0.0100242 0)
(1.0379 0.0107794 0)
(1.0346 0.010555 0)
(1.03201 0.00951172 0)
(1.03018 0.00808173 0)
(1.02894 0.00655562 0)
(1.02813 0.00509184 0)
(1.02759 0.00376777 0)
(1.02564 0.00260804 0)
(0.990064 0.00158657 0)
(0.747328 0.000657956 0)
(0.172541 5.19094e-05 0)
(0.18439 7.70594e-05 0)
(0.937071 0.00154342 0)
(1.04263 0.00280289 0)
(1.05067 0.00417631 0)
(1.05023 0.00574681 0)
(1.0492 0.00750758 0)
(1.04763 0.00939766 0)
(1.04535 0.0112758 0)
(1.0422 0.0128717 0)
(1.03812 0.0137257 0)
(1.0339 0.0133237 0)
(1.03056 0.0119274 0)
(1.02818 0.0100922 0)
(1.02656 0.00816718 0)
(1.0255 0.00633895 0)
(1.0248 0.00469342 0)
(1.02274 0.00325539 0)
(0.986923 0.00198771 0)
(0.744054 0.000827129 0)
(0.171214 6.52044e-05 0)
(0.186346 0.000100155 0)
(0.941549 0.00199975 0)
(1.04652 0.00363423 0)
(1.05435 0.00541637 0)
(1.05372 0.00744543 0)
(1.0524 0.0097115 0)
(1.0504 0.0121285 0)
(1.04749 0.0145039 0)
(1.04348 0.0164805 0)
(1.0383 0.0174712 0)
(1.03293 0.0168616 0)
(1.02867 0.0150296 0)
(1.02564 0.0126833 0)
(1.02357 0.0102483 0)
(1.02221 0.00794949 0)
(1.02133 0.00588694 0)
(1.01912 0.00408734 0)
(0.982998 0.00249905 0)
(0.739938 0.00104029 0)
(0.169547 8.17153e-05 0)
(0.188897 0.000131284 0)
(0.947328 0.00260321 0)
(1.05151 0.00472879 0)
(1.05908 0.00703767 0)
(1.0582 0.0096494 0)
(1.05649 0.0125547 0)
(1.05389 0.0156362 0)
(1.05015 0.0186342 0)
(1.04502 0.0210809 0)
(1.03842 0.0222322 0)
(1.03163 0.0213538 0)
(1.02624 0.0189708 0)
(1.02241 0.0159774 0)
(1.01979 0.012897 0)
(1.01807 0.0100008 0)
(1.01696 0.00740671 0)
(1.01458 0.00514349 0)
(0.978066 0.00314414 0)
(0.734759 0.00130704 0)
(0.167457 0.000102102 0)
(0.192254 0.000175139 0)
(0.954797 0.00341946 0)
(1.05791 0.0062025 0)
(1.06513 0.00919161 0)
(1.06391 0.0125399 0)
(1.06165 0.0162546 0)
(1.05826 0.020177 0)
(1.05341 0.0239502 0)
(1.04683 0.0269614 0)
(1.03844 0.0282763 0)
(1.02987 0.0270315 0)
(1.0231 0.023945 0)
(1.01829 0.0201355 0)
(1.015 0.0162434 0)
(1.01285 0.012597 0)
(1.01147 0.00933496 0)
(1.00888 0.00648385 0)
(0.97186 0.00395864 0)
(0.728238 0.0016415 0)
(0.164838 0.000127711 0)
(0.196741 0.000241523 0)
(0.964519 0.0045668 0)
(1.06616 0.00823477 0)
(1.07295 0.0120741 0)
(1.07122 0.0163346 0)
(1.06819 0.0210824 0)
(1.06369 0.0260791 0)
(1.05736 0.030812 0)
(1.04889 0.0344788 0)
(1.03825 0.0359277 0)
(1.0275 0.0341731 0)
(1.01905 0.030188 0)
(1.01305 0.0253587 0)
(1.00895 0.0204588 0)
(1.00627 0.0158851 0)
(1.00456 0.0117959 0)
(1.00173 0.00820677 0)
(0.964043 0.00500473 0)
(0.72001 0.00206975 0)
(0.161557 0.000161504 0)
(0.202864 0.000346458 0)
(0.97736 0.00623745 0)
(1.07702 0.0110565 0)
(1.08325 0.0158999 0)
(1.08074 0.0213009 0)
(1.07654 0.0274116 0)
(1.07047 0.033796 0)
(1.06212 0.0396957 0)
(1.0512 0.0440809 0)
(1.03775 0.0455746 0)
(1.02434 0.0431077 0)
(1.01387 0.0379867 0)
(1.00642 0.0319009 0)
(1.00133 0.0257686 0)
(0.997985 0.0200686 0)
(0.995874 0.0149786 0)
(0.992724 0.0104817 0)
(0.954179 0.00640282 0)
(0.709567 0.00264131 0)
(0.157427 0.000209535 0)
(0.211439 0.00051141 0)
(0.994636 0.00873367 0)
(1.09171 0.0149943 0)
(1.0971 0.0210498 0)
(1.09331 0.0280062 0)
(1.08736 0.035971 0)
(1.07905 0.0440891 0)
(1.06794 0.0512997 0)
(1.05381 0.0563534 0)
(1.03685 0.0576813 0)
(1.02025 0.0542174 0)
(1.00736 0.0476843 0)
(0.998169 0.0400833 0)
(0.991819 0.0324709 0)
(0.987611 0.0254228 0)
(0.984936 0.0191494 0)
(0.981362 0.0135774 0)
(0.941716 0.00837793 0)
(0.696261 0.00345247 0)
(0.152198 0.000280511 0)
(0.223844 0.000781811 0)
(1.01808 0.0127022 0)
(1.1115 0.0208082 0)
(1.11557 0.0285744 0)
(1.10982 0.037807 0)
(1.10134 0.0481493 0)
(1.08985 0.0581678 0)
(1.07501 0.0665815 0)
(1.05677 0.0720055 0)
(1.03553 0.0727537 0)
(1.01514 0.0678949 0)
(0.999398 0.0596396 0)
(0.988087 0.0502633 0)
(0.980142 0.0409188 0)
(0.974738 0.0322715 0)
(0.971193 0.0245948 0)
(0.966967 0.0177693 0)
(0.92605 0.0111929 0)
(0.679495 0.00463334 0)
(0.145582 0.000376322 0)
(0.242456 0.00130174 0)
(1.0502 0.0196612 0)
(1.13796 0.0301272 0)
(1.13972 0.0405072 0)
(1.13084 0.0527919 0)
(1.11853 0.0656887 0)
(1.10256 0.0773595 0)
(1.08286 0.0864938 0)
(1.05963 0.0916742 0)
(1.03342 0.0912071 0)
(1.00875 0.084443 0)
(0.98976 0.0741364 0)
(0.975952 0.0627644 0)
(0.966018 0.0514865 0)
(0.958986 0.0409922 0)
(0.954116 0.0316236 0)
(0.948838 0.0232472 0)
(0.906469 0.0150062 0)
(0.658777 0.00628653 0)
(0.137284 0.000486242 0)
(0.270575 0.00254944 0)
(1.09648 0.0333453 0)
(1.17394 0.0467807 0)
(1.17064 0.0608269 0)
(1.15613 0.0762251 0)
(1.1378 0.0909083 0)
(1.11574 0.103229 0)
(1.09011 0.112011 0)
(1.06123 0.115911 0)
(1.02968 0.113337 0)
(1.00051 0.104088 0)
(0.978064 0.0914523 0)
(0.961499 0.0779878 0)
(0.949225 0.0647586 0)
(0.940126 0.0523728 0)
(0.933409 0.0411884 0)
(0.926426 0.0310311 0)
(0.88153 0.0207302 0)
(0.632707 0.00858925 0)
(0.127406 0.000579612 0)
(0.311523 0.0105769 -1.5464e-20)
(1.15779 0.0616355 -1.17287e-20)
(1.21914 0.0787443 3.27755e-21)
(1.2061 0.0957669 0)
(1.18337 0.112173 1.36902e-35)
(1.15731 0.126532 -3.43464e-23)
(1.12804 0.137674 -9.2688e-22)
(1.09571 0.144576 0)
(1.06067 0.146063 4.1373e-35)
(1.02338 0.140662 -3.25367e-21)
(0.989328 0.128648 0)
(0.962994 0.113749 -4.81109e-21)
(0.943117 0.0984453 -1.48075e-20)
(0.927796 0.0836701 -7.20044e-21)
(0.91573 0.070009 -2.28434e-21)
(0.905975 0.0578365 -1.38991e-21)
(0.89585 0.0469989 0)
(0.848595 0.0355899 1.01137e-21)
(0.598007 0.0202154 1.20012e-21)
(0.117347 0.00357857 2.14033e-20)
(0.332666 0.0291358 -2.74076e-20)
(1.20817 0.110396 5.16088e-22)
(1.26009 0.129526 -1.53208e-21)
(1.23834 0.144654 0)
(1.20779 0.159083 2.83089e-21)
(1.17439 0.171377 1.92616e-21)
(1.13816 0.180396 -4.26506e-22)
(1.0992 0.185088 -4.83247e-21)
(1.05769 0.184222 0)
(1.01398 0.176346 1.3646e-20)
(0.97401 0.162146 1.53916e-20)
(0.942586 0.145775 5.00229e-21)
(0.918166 0.129663 2.00808e-20)
(0.898559 0.114536 2.99406e-20)
(0.882315 0.100908 0)
(0.868317 0.0892304 4.50983e-20)
(0.853504 0.0793368 6.65243e-20)
(0.804591 0.0686944 7.46684e-20)
(0.572593 0.0472946 -8.76711e-20)
(0.11606 0.00997461 -1.59683e-21)
(0.320865 0.0468935 0)
(1.23759 0.173517 -7.92704e-21)
(1.29031 0.19289 0)
(1.26276 0.203861 1.29386e-20)
(1.22603 0.214104 0)
(1.18649 0.22246 7.64831e-21)
(1.14428 0.2279 -5.08629e-24)
(1.09952 0.229262 -6.11499e-21)
(1.05233 0.225308 -1.51648e-21)
(1.00292 0.214646 6.43221e-21)
(0.957737 0.198397 3.59182e-20)
(0.922091 0.180975 -2.28289e-22)
(0.894215 0.164689 -1.50878e-20)
(0.871664 0.150148 -2.95486e-20)
(0.852945 0.137662 3.60885e-20)
(0.836966 0.127466 -6.49598e-20)
(0.821247 0.119424 -8.95611e-21)
(0.777455 0.109386 0)
(0.56605 0.0801239 5.2353e-22)
(0.12172 0.0176827 0)
(0.306869 0.0619617 -1.97431e-19)
(1.25019 0.239456 8.077e-20)
(1.30829 0.260468 4.27251e-20)
(1.27764 0.267517 -8.33196e-21)
(1.23698 0.273109 1.27919e-20)
(1.19313 0.276998 -1.82395e-20)
(1.1464 0.278217 -1.10392e-21)
(1.09698 0.275686 0)
(1.04515 0.268232 -2.32608e-20)
(0.991114 0.254465 0)
(0.941891 0.235971 -1.79864e-20)
(0.903192 0.217395 -2.60388e-20)
(0.873103 0.200815 -1.68318e-20)
(0.849081 0.186548 -2.19377e-20)
(0.829467 0.17466 0)
(0.813065 0.165238 0)
(0.79761 0.158069 -5.98746e-20)
(0.757282 0.147768 1.20089e-20)
(0.557692 0.109261 -7.07336e-21)
(0.12195 0.0242203 -8.28332e-21)
(0.294979 0.0753771 1.43126e-19)
(1.25144 0.304742 0)
(1.31626 0.328279 -1.17761e-19)
(1.28391 0.331658 -3.08093e-20)
(1.24078 0.332781 -2.4316e-20)
(1.19413 0.332244 0)
(1.14431 0.329243 -4.83934e-21)
(1.09154 0.322782 4.14023e-21)
(1.03608 0.311686 9.394e-21)
(0.97823 0.294677 3.20484e-20)
(0.92566 0.273748 0)
(0.884634 0.253731 -5.6344e-20)
(0.853097 0.236446 -3.64729e-20)
(0.828254 0.221952 -2.2062e-20)
(0.808312 0.210102 1.46308e-19)
(0.791965 0.200774 1.80201e-20)
(0.776983 0.19362 8.64165e-20)
(0.738732 0.182307 -4.20688e-19)
(0.546859 0.135277 2.52502e-19)
(0.120626 0.0301497 -3.05275e-19)
(0.286059 0.0877341 1.48884e-19)
(1.24584 0.367037 -2.75184e-20)
(1.31676 0.394129 2.03804e-20)
(1.28362 0.394116 5.59752e-20)
(1.23898 0.391152 3.51433e-20)
(1.19048 0.386577 1.55233e-21)
(1.13846 0.379649 4.77868e-21)
(1.08317 0.369422 1.40563e-21)
(1.02491 0.354766 -2.02481e-20)
(0.964091 0.334488 0)
(0.90895 0.310971 -2.38941e-20)
(0.866192 0.289233 -1.48587e-21)
(0.83367 0.270853 -4.09068e-20)
(0.808387 0.255677 0)
(0.788388 0.243353 -3.19249e-20)
(0.772239 0.233624 -7.78936e-20)
(0.757675 0.22604 2.16692e-19)
(0.720905 0.213443 -2.17648e-19)
(0.535315 0.158674 3.11238e-19)
(0.118443 0.0354072 -3.24612e-19)
(0.279392 0.099287 -4.96877e-22)
(1.23617 0.425587 3.30671e-20)
(1.31167 0.456676 9.65435e-20)
(1.27831 0.453873 -3.3846e-20)
(1.23286 0.447334 1.99117e-20)
(1.1832 0.439108 0)
(1.12971 0.428589 1.08735e-20)
(1.07265 0.414867 6.04955e-22)
(1.01233 0.396867 -8.43298e-21)
(0.949145 0.373411 0)
(0.891858 0.347238 -2.27034e-20)
(0.847666 0.323537 -3.29697e-20)
(0.814382 0.303717 4.47597e-20)
(0.788828 0.287469 -2.89721e-20)
(0.768865 0.274329 -1.41035e-19)
(0.752953 0.2639 8.71348e-20)
(0.738794 0.255643 2.78822e-20)
(0.703228 0.241696 0)
(0.523168 0.179738 -3.02976e-19)
(0.115697 0.0400353 -1.11494e-20)
(0.274336 0.11037 2.38663e-20)
(1.22421 0.480265 -3.76189e-20)
(1.30259 0.515421 -5.23622e-20)
(1.26931 0.510296 -1.03963e-19)
(1.22355 0.500745 9.52908e-20)
(1.17328 0.489343 -5.34736e-20)
(1.11884 0.475558 -2.34105e-20)
(1.06048 0.458629 2.26235e-21)
(0.99858 0.437563 1.00838e-20)
(0.933487 0.411131 -7.57289e-20)
(0.874357 0.382318 -2.84806e-20)
(0.828867 0.356475 0)
(0.794923 0.334942 4.91041e-20)
(0.769156 0.31732 6.12703e-20)
(0.749283 0.303054 7.58836e-20)
(0.733653 0.291696 -9.5585e-20)
(0.719898 0.282572 -2.89162e-20)
(0.685453 0.267147 3.44387e-20)
(0.510424 0.198543 0)
(0.112514 0.0440295 -2.44958e-20)
(0.27027 0.120995 -2.7289e-19)
(1.21114 0.531193 1.71605e-19)
(1.29084 0.570277 5.69229e-20)
(1.25768 0.563228 -7.85894e-20)
(1.21186 0.551075 5.62523e-20)
(1.16129 0.536886 -3.569e-21)
(1.10631 0.520217 2.39075e-20)
(1.0471 0.500401 4.50083e-22)
(0.984024 0.476576 -1.45468e-20)
(0.917383 0.447462 -2.44727e-23)
(0.856551 0.416115 -8.31894e-20)
(0.809765 0.388042 8.51912e-20)
(0.775114 0.36457 -5.55422e-20)
(0.749108 0.345282 6.98185e-20)
(0.72933 0.329643 0)
(0.714004 0.317129 -5.23635e-20)
(0.700695 0.306983 -1.34488e-21)
(0.667301 0.289964 -1.51917e-19)
(0.497023 0.215249 -2.25232e-20)
(0.10888 0.0473611 0)
(0.266861 0.131047 0)
(1.19755 0.578638 1.83445e-19)
(1.27737 0.621367 1.31554e-19)
(1.24433 0.612701 8.80505e-20)
(1.19857 0.598292 5.48217e-20)
(1.14792 0.581631 0)
(1.09267 0.562397 1.98888e-20)
(1.03297 0.540015 -1.37302e-21)
(0.969036 0.513733 2.9263e-20)
(0.901089 0.482295 -8.6359e-21)
(0.838577 0.448671 -6.1155e-20)
(0.790375 0.418365 4.21052e-20)
(0.754837 0.392765 -2.18834e-21)
(0.728482 0.371537 7.37781e-20)
(0.70876 0.354235 4.8938e-20)
(0.693748 0.340325 -1.14694e-19)
(0.68095 0.32892 1.39761e-19)
(0.648588 0.31016 4.21295e-20)
(0.482829 0.229742 1.75016e-19)
(0.104671 0.0499583 -4.68331e-19)
(0.263966 0.140752 -6.84825e-20)
(1.18372 0.622804 1.05154e-19)
(1.26279 0.668956 -8.06714e-20)
(1.22984 0.658808 -1.00947e-19)
(1.18421 0.642414 0)
(1.13361 0.623559 4.46003e-20)
(1.0783 0.602032 -5.9564e-20)
(1.01839 0.577399 -7.3347e-21)
(0.953937 0.548986 0)
(0.884857 0.515613 -1.35631e-19)
(0.820657 0.480065 1.66396e-19)
(0.770755 0.447627 0)
(0.734021 0.419743 6.67879e-20)
(0.70711 0.396287 -2.3541e-21)
(0.687337 0.377012 -1.56353e-19)
(0.672606 0.361415 6.13398e-20)
(0.660333 0.348572 0)
(0.629077 0.327823 2.30093e-19)
(0.467587 0.242159 0)
(0.0999399 0.0517303 -2.25333e-19)
(0.261499 0.150075 7.55649e-20)
(1.17012 0.664158 1.19485e-19)
(1.24748 0.713216 -8.43616e-20)
(1.21462 0.701722 0)
(1.1692 0.683537 7.35333e-20)
(1.11875 0.662722 0)
(1.06353 0.639141 7.50809e-20)
(1.00363 0.61249 1.08372e-20)
(0.938978 0.58231 8.9983e-22)
(0.869017 0.547396 -6.61515e-20)
(0.80301 0.510416 1.56573e-20)
(0.751044 0.476075 0)
(0.712663 0.44579 -1.4306e-19)
(0.684832 0.419811 2.49923e-21)
(0.6648 0.398202 0)
(0.650284 0.380597 2.69317e-21)
(0.638569 0.365999 2.10717e-19)
(0.608359 0.343051 -2.04735e-19)
(0.451126 0.252234 6.05957e-20)
(0.0944806 0.0526607 0)
(0.259132 0.158908 0)
(1.15669 0.702871 1.32406e-19)
(1.23188 0.754354 9.77506e-20)
(1.19894 0.741647 -1.97543e-21)
(1.15381 0.721818 4.50877e-20)
(1.1036 0.699224 1.05007e-19)
(1.04864 0.673775 -2.51356e-20)
(0.988918 0.645314 7.47785e-21)
(0.92433 0.613639 1.04252e-20)
(0.853832 0.577708 -9.8593e-20)
(0.785932 0.539867 -3.06696e-21)
(0.731419 0.503987 -5.67848e-20)
(0.690785 0.471302 2.3732e-19)
(0.661513 0.442468 -3.14742e-21)
(0.6409 0.41807 -1.27036e-19)
(0.626493 0.398039 -2.32659e-19)
(0.615297 0.381403 0)
(0.586093 0.355879 0)
(0.433108 0.259936 6.82183e-20)
(0.0881529 0.0526511 -3.9734e-20)
(0.257239 0.167407 9.22209e-20)
(1.14346 0.739547 -2.86509e-19)
(1.21617 0.792588 -1.03976e-19)
(1.18311 0.778769 0)
(1.13826 0.757421 -1.22774e-21)
(1.08836 0.733176 1.23767e-19)
(1.03377 0.706007 -8.01916e-20)
(0.974442 0.675904 -5.1128e-20)
(0.910165 0.642958 3.09504e-21)
(0.839474 0.606545 -7.07526e-20)
(0.769761 0.56852 -1.37747e-19)
(0.712093 0.53167 1.51538e-19)
(0.668463 0.496724 0)
(0.637086 0.464791 -5.783e-20)
(0.615506 0.43704 -1.41575e-19)
(0.600971 0.413839 -1.71699e-19)
(0.590093 0.394719 -2.09785e-19)
(0.561804 0.366226 6.33884e-20)
(0.412987 0.26499 -3.70168e-20)
(0.0807538 0.0514544 8.38049e-22)
(0.255381 0.175518 0)
(1.13048 0.773892 0)
(1.20049 0.828139 1.75725e-21)
(1.16733 0.813264 0)
(1.12272 0.790537 -1.66174e-19)
(1.07316 0.76473 -1.0752e-19)
(1.01902 0.735932 0)
(0.960307 0.704295 -1.00979e-20)
(0.896639 0.670281 -1.30636e-20)
(0.826098 0.633832 -1.58367e-19)
(0.754744 0.596513 0)
(0.693406 0.559443 -9.74693e-20)
(0.645901 0.522569 -3.80089e-21)
(0.611507 0.487328 -3.11533e-21)
(0.588126 0.455574 1.53825e-19)
(0.573108 0.428588 -1.55538e-22)
(0.562407 0.405997 -4.63845e-19)
(0.535435 0.374032 1.40873e-19)
(0.390512 0.266937 4.21229e-20)
(0.0721908 0.0488328 0)
(0.253604 0.183219 -3.3347e-19)
(1.11781 0.806168 -1.72306e-19)
(1.18491 0.86129 -2.54778e-19)
(1.15169 0.845338 3.59014e-19)
(1.10731 0.821318 -3.079e-19)
(1.05811 0.794035 0)
(1.0045 0.763669 -6.60829e-20)
(0.946528 0.730545 2.04697e-20)
(0.883851 0.695596 3.35595e-21)
(0.813865 0.65953 1.28779e-20)
(0.741 0.623937 1.67073e-19)
(0.675736 0.587599 -3.28765e-20)
(0.623304 0.549469 -1.5005e-19)
(0.584465 0.510939 -7.15774e-20)
(0.558013 0.473944 8.73905e-20)
(0.541973 0.442961 -4.641e-24)
(0.532179 0.415754 1.30367e-19)
(0.506306 0.379357 -3.10314e-19)
(0.364233 0.265133 3.74308e-19)
(0.0622394 0.0445949 5.37723e-20)
(0.251829 0.190569 1.21419e-19)
(1.10556 0.83642 -9.29117e-20)
(1.16958 0.892177 4.8309e-21)
(1.13627 0.875194 1.99811e-19)
(1.09213 0.849941 7.07486e-20)
(1.04327 0.821231 2.12554e-19)
(0.990246 0.789337 -2.77798e-20)
(0.933142 0.754716 9.58394e-20)
(0.871765 0.718865 4.81501e-20)
(0.80291 0.683598 -7.29845e-20)
(0.72884 0.650671 0)
(0.659494 0.616481 -1.52014e-19)
(0.601047 0.577906 2.21686e-19)
(0.55571 0.53573 0)
(0.524823 0.493885 -1.89153e-19)
(0.507069 0.456809 1.19765e-19)
(0.497952 0.424674 -1.435e-19)
(0.472286 0.382241 -1.7504e-19)
(0.333119 0.25933 -3.10632e-19)
(0.0506849 0.0385026 -2.4282e-19)
(0.250314 0.197839 -1.32157e-19)
(1.09347 0.864823 9.93183e-20)
(1.1546 0.920961 2.32393e-19)
(1.12117 0.902996 2.72774e-19)
(1.07724 0.876567 -1.47834e-19)
(1.02871 0.846479 1.44168e-19)
(0.976263 0.813063 -8.74113e-20)
(0.920147 0.776879 1.14762e-19)
(0.860371 0.740078 3.96494e-20)
(0.793288 0.7059 5.39057e-20)
(0.718824 0.676562 3.40911e-19)
(0.645222 0.64625 0)
(0.579575 0.6077 0)
(0.525825 0.562366 -8.37676e-20)
(0.489672 0.516753 0)
(0.469597 0.471236 2.64542e-19)
(0.459123 0.430807 3.20246e-19)
(0.433437 0.379956 0)
(0.296343 0.247452 0)
(0.0374238 0.030228 2.71523e-19)
(0.248819 0.204593 1.44356e-19)
(1.0817 0.891508 1.1632e-19)
(1.14001 0.947803 1.65962e-19)
(1.10645 0.928912 -2.39707e-19)
(1.0627 0.901358 -1.62835e-19)
(1.01445 0.869923 -1.88344e-19)
(0.962581 0.834991 1.29083e-19)
(0.907513 0.797121 2.1951e-21)
(0.849642 0.759267 -3.98635e-21)
(0.785018 0.726253 -9.81924e-21)
(0.711195 0.701609 1.69044e-19)
(0.632931 0.676678 0)
(0.559317 0.63952 2.30331e-19)
(0.496562 0.593578 1.78776e-19)
(0.453185 0.540997 4.68726e-19)
(0.426817 0.489062 1.44732e-19)
(0.412767 0.438644 -1.82289e-19)
(0.387723 0.372559 -1.08412e-19)
(0.254348 0.227708 0)
(0.0244828 0.0202972 3.02665e-19)
(0.247747 0.211461 -3.14094e-19)
(1.07031 0.916588 0)
(1.12581 0.972852 1.82458e-19)
(1.09216 0.95308 -1.94122e-19)
(1.04855 0.924461 1.80955e-19)
(1.00053 0.891714 2.70764e-19)
(0.949204 0.855247 -2.9415e-19)
(0.895217 0.815576 4.46924e-21)
(0.839486 0.776464 0)
(0.77818 0.744475 -1.80076e-20)
(0.706112 0.725508 -3.28422e-19)
(0.623211 0.707638 1.99906e-20)
(0.540805 0.673242 3.19791e-19)
(0.47067 0.626852 0)
(0.416467 0.573268 3.20328e-19)
(0.379154 0.508913 0)
(0.355537 0.442138 0)
(0.331159 0.353493 -1.2441e-19)
(0.213222 0.190932 0)
(0.0306085 0.0164988 8.30854e-20)
(0.246556 0.217885 -3.39907e-19)
(1.05925 0.940297 0)
(1.11198 0.996306 2.93577e-19)
(1.07828 0.975736 0)
(1.03475 0.946147 -9.66422e-20)
(0.986871 0.91216 0)
(0.936044 0.874197 -2.10599e-20)
(0.883102 0.83262 -2.02749e-20)
(0.829719 0.791975 -7.90061e-21)
(0.772624 0.760765 7.04055e-21)
(0.703424 0.748669 6.89581e-21)
(0.616004 0.740056 1.72984e-19)
(0.525025 0.709949 3.12451e-19)
(0.44562 0.666863 4.62145e-20)
(0.377149 0.607974 2.53429e-19)
(0.321562 0.543534 0)
(0.277343 0.456798 4.06337e-19)
(0.242606 0.317865 -2.47065e-19)
(0.119818 0.147028 2.88988e-19)
(-0.0537575 0.379411 -3.44677e-19)
(0.245641 0.224222 2.7514e-19)
(1.04838 0.962762 4.29398e-19)
(1.09838 1.01847 0)
(1.06467 0.997273 2.4961e-21)
(1.02108 0.966911 2.59855e-19)
(0.973155 0.931825 -5.11774e-19)
(0.922689 0.892452 -1.26724e-19)
(0.870676 0.848828 0)
(0.819847 0.806261 -7.91479e-20)
(0.768102 0.775536 3.89683e-21)
(0.703422 0.771795 0)
(0.611671 0.775189 0)
(0.510319 0.754182 2.78762e-19)
(0.416537 0.714068 -1.47975e-19)
(0.331376 0.66003 -2.54898e-19)
(0.258948 0.589725 0)
(0.173172 0.487855 2.07123e-19)
(0.0706235 0.553796 -2.49674e-19)
(0.0617093 1.7199 -1.3517e-19)
(0.0968823 2.72538 -1.70055e-19)
(0.244949 0.229732 -1.98638e-19)
(1.03775 0.984048 -5.35785e-19)
(1.08504 1.03926 1.65701e-19)
(1.05139 1.01762 1.59546e-19)
(1.00764 0.986634 0)
(0.959469 0.950574 -3.62702e-19)
(0.909329 0.909918 -2.08148e-19)
(0.858065 0.864038 1.28886e-20)
(0.809961 0.818997 -1.26098e-20)
(0.764649 0.788154 -5.51966e-20)
(0.70716 0.793407 1.12524e-19)
(0.614226 0.811135 1.77575e-19)
(0.497603 0.804955 2.80392e-19)
(0.387181 0.767394 -3.45845e-19)
(0.28343 0.711805 -3.79886e-19)
(0.200146 0.661993 0)
(0.107851 0.899211 0)
(0.16177 2.41271 1.07143e-19)
(0.167395 3.13485 0)
(0.165877 3.34534 2.50009e-19)
(0.247152 0.234551 0)
(1.02714 1.00406 0)
(1.07195 1.0585 0)
(1.03821 1.03664 4.38111e-20)
(0.994212 1.00522 2.28346e-19)
(0.945673 0.968416 -2.71653e-19)
(0.895966 0.926575 -1.47593e-19)
(0.845211 0.878333 1.43e-20)
(0.800005 0.830081 -1.47378e-19)
(0.7621 0.798076 -1.95039e-20)
(0.715326 0.812209 1.46594e-19)
(0.623818 0.852821 -2.25745e-20)
(0.490637 0.8635 3.175e-20)
(0.35877 0.817948 5.04833e-20)
(0.248416 0.78246 2.70272e-22)
(0.169708 1.00005 2.06568e-21)
(0.212696 2.50979 -5.14269e-19)
(0.241712 3.23982 -1.94599e-19)
(0.221198 3.40037 9.06625e-20)
(0.199457 3.43007 -9.20345e-20)
(0.150831 0.183349 1.11392e-19)
(1.01046 1.02458 0)
(1.05968 1.07656 -3.18136e-19)
(1.02574 1.05497 -4.05602e-19)
(0.981465 1.02339 4.66496e-19)
(0.93243 0.985911 2.86565e-19)
(0.882134 0.942668 1.7182e-19)
(0.832066 0.892995 -2.23102e-19)
(0.788669 0.841468 1.44238e-19)
(0.759211 0.805017 0)
(0.729273 0.825504 2.20785e-20)
(0.6403 0.891049 -1.2619e-19)
(0.490184 0.924888 0)
(0.327496 0.886226 4.65111e-20)
(0.238267 0.954111 1.06759e-19)
(0.212548 2.11134 -1.26952e-19)
(0.320803 3.26047 1.39367e-19)
(0.299169 3.41783 6.52683e-20)
(0.25296 3.45304 7.37196e-20)
(0.221616 3.46962 8.51514e-20)
(0.297942 0.280715 -1.99713e-19)
(0.988688 1.02924 0)
(1.04215 1.10065 3.1853e-19)
(1.00663 1.08119 4.09315e-19)
(0.96073 1.04917 -4.70851e-19)
(0.910071 1.01023 -2.95334e-19)
(0.857946 0.963672 -2.52857e-19)
(0.807614 0.908053 -1.74465e-20)
(0.769519 0.849047 -1.92593e-19)
(0.759233 0.809351 -1.88971e-19)
(0.757253 0.843466 -5.3876e-21)
(0.678091 0.962481 9.77083e-20)
(0.48638 1.05876 3.01844e-20)
(0.293644 1.1345 -4.5305e-20)
(0.328809 1.99848 -9.52215e-20)
(0.419669 3.22635 6.19296e-20)
(0.415194 3.4529 -4.92202e-20)
(0.367826 3.49598 -2.59839e-20)
(0.315569 3.53592 2.00155e-20)
(0.239426 3.52863 8.00576e-22)
(0.286049 0.277047 0)
(0.985178 1.04946 8.41828e-20)
(1.03126 1.12028 -6.27983e-20)
(0.994332 1.10032 -4.51915e-20)
(0.947289 1.0681 -3.04214e-19)
(0.895607 1.0283 2.86294e-19)
(0.842221 0.979739 1.6704e-19)
(0.791554 0.920854 -1.80106e-20)
(0.756232 0.8556 2.3416e-19)
(0.75893 0.808668 -2.69118e-20)
(0.797125 0.849124 2.23023e-19)
(0.740009 1.02367 1.67846e-20)
(0.510451 1.17188 -2.82796e-20)
(0.329695 1.4086 -4.03733e-20)
(0.467756 2.78297 1.81707e-20)
(0.534821 3.41269 -1.66761e-21)
(0.47121 3.52754 -6.84316e-20)
(0.427422 3.5761 -8.4878e-20)
(0.346686 3.62339 1.15883e-19)
(0.263841 3.60692 5.03742e-20)
(0.267498 0.273319 2.07262e-19)
(0.97925 1.07326 5.59677e-19)
(1.0197 1.14175 -1.76001e-19)
(0.980986 1.12101 -1.69548e-19)
(0.932822 1.08836 0)
(0.879835 1.04746 4.06583e-19)
(0.824879 0.996609 2.49016e-19)
(0.773111 0.93332 -1.85262e-20)
(0.739458 0.859421 2.73214e-20)
(0.753375 0.796896 3.57833e-19)
(0.828796 0.841818 2.11119e-19)
(0.823812 1.06938 -7.00168e-20)
(0.584033 1.29871 -2.3469e-19)
(0.417068 1.78778 2.63047e-19)
(0.612176 3.19755 1.19389e-19)
(0.633359 3.50316 0)
(0.554413 3.58571 0)
(0.485243 3.6724 1.12025e-19)
(0.397178 3.74216 0)
(0.282551 3.71451 1.86192e-19)
(0.254494 0.273565 -2.99582e-19)
(0.971113 1.09889 -4.60989e-19)
(1.00654 1.16484 0)
(0.966171 1.14298 1.85339e-21)
(0.916766 1.10967 -2.87622e-19)
(0.862265 1.06757 5.93029e-19)
(0.80544 1.0143 1.63206e-19)
(0.751824 0.945845 -1.95294e-20)
(0.718789 0.860555 2.40287e-19)
(0.746915 0.776585 -2.37918e-20)
(0.885223 0.810863 0)
(0.963882 1.09422 0)
(0.699761 1.45055 -1.94589e-19)
(0.564223 2.20511 7.73543e-20)
(0.7568 3.37332 1.89862e-20)
(0.726981 3.56272 0)
(0.663469 3.66312 2.56532e-19)