/*--------------------------------*- C++ -*----------------------------------*\
  =========                 |
  \\      /  F ield         | OpenFOAM: The Open Source CFD Toolbox
   \\    /   O peration     | Website:  https://openfoam.org
    \\  /    A nd           | Version:  9
     \\/     M anipulation  |
\*---------------------------------------------------------------------------*/
FoamFile
{
    format      ascii;
    class       volScalarField;
    location    "8";
    object      p;
}
// * * * * * * * * * * * * * * * * * * * * * * * * * * * * * * * * * * * * * //

dimensions      [0 2 -2 0 0 0 0];

internalField   nonuniform List<scalar> 
8800
(
0.406812
0.359143
0.320693
0.291964
0.271435
0.256981
0.24678
0.239646
0.235053
0.233018
0.233978
0.237672
0.243739
0.252464
0.264706
0.281977
0.306384
0.340051
0.382309
0.440991
0.237445
0.245166
0.253172
0.256762
0.255612
0.250965
0.244945
0.239325
0.234967
0.232271
0.231828
0.233908
0.237781
0.243061
0.249181
0.254884
0.25803
0.256963
0.251021
0.242023
0.215545
0.221949
0.226577
0.230138
0.23274
0.233895
0.233284
0.231556
0.229732
0.22878
0.229437
0.231318
0.233514
0.235009
0.234907
0.233031
0.230011
0.225944
0.220965
0.217129
0.209172
0.212058
0.215851
0.219212
0.221475
0.222971
0.223945
0.224358
0.224333
0.224337
0.224678
0.2252
0.225381
0.224922
0.22386
0.222139
0.219406
0.21567
0.212403
0.210982
0.206237
0.207493
0.210266
0.213232
0.215879
0.218002
0.219458
0.220302
0.220746
0.221026
0.221381
0.221581
0.221332
0.22046
0.218836
0.216565
0.213845
0.210867
0.20884
0.208378
0.206035
0.206507
0.207659
0.209018
0.210409
0.211837
0.213183
0.214359
0.215252
0.215877
0.216168
0.216051
0.215495
0.214572
0.213418
0.212125
0.210849
0.209586
0.208804
0.208632
0.204649
0.204876
0.205553
0.206494
0.20754
0.208573
0.209615
0.21061
0.211476
0.212172
0.212561
0.212548
0.21219
0.211558
0.210823
0.209988
0.20912
0.208339
0.20792
0.207847
0.202283
0.202378
0.202702
0.203227
0.20384
0.20461
0.20548
0.206395
0.207292
0.208094
0.208601
0.208716
0.208525
0.208139
0.207665
0.207203
0.206792
0.206432
0.206267
0.206236
0.199241
0.1993
0.199512
0.199875
0.200336
0.200905
0.201586
0.202376
0.203246
0.204131
0.204808
0.205146
0.205219
0.205127
0.204943
0.204719
0.204487
0.204293
0.204209
0.204191
0.195822
0.195859
0.196001
0.196254
0.196612
0.197096
0.197727
0.198512
0.199441
0.200466
0.201355
0.201917
0.202201
0.2023
0.202295
0.202235
0.202155
0.202084
0.202054
0.202042
0.192036
0.192061
0.192172
0.192373
0.192681
0.193123
0.193735
0.194549
0.195578
0.196798
0.197951
0.198775
0.199295
0.199602
0.199766
0.199843
0.199869
0.199874
0.199875
0.199867
0.187896
0.187922
0.188022
0.188214
0.188517
0.188974
0.189633
0.190544
0.191745
0.193236
0.194716
0.195842
0.196603
0.197103
0.197415
0.197601
0.197707
0.197763
0.197785
0.197779
0.183385
0.183407
0.183517
0.183725
0.18406
0.184575
0.185334
0.186407
0.187858
0.189705
0.191588
0.193063
0.194117
0.194821
0.195281
0.195571
0.195746
0.195843
0.195884
0.195878
0.178464
0.178489
0.178616
0.178858
0.179254
0.179868
0.180783
0.182092
0.183884
0.186198
0.188595
0.19051
0.191874
0.192811
0.193432
0.193829
0.194073
0.194212
0.194269
0.194263
0.173044
0.173073
0.173229
0.173526
0.174013
0.174771
0.175905
0.177537
0.179781
0.182696
0.185735
0.188173
0.189928
0.191139
0.191946
0.192465
0.192786
0.192969
0.193046
0.193039
0.167007
0.167042
0.167239
0.167613
0.168226
0.169181
0.17061
0.172669
0.175503
0.179187
0.183033
0.186124
0.188353
0.189894
0.190923
0.191587
0.191998
0.192233
0.192331
0.192323
0.160187
0.160233
0.160484
0.160962
0.161745
0.162963
0.164784
0.167401
0.170998
0.175664
0.180524
0.184425
0.187238
0.189183
0.190482
0.191322
0.191842
0.192139
0.192262
0.192252
0.152363
0.152423
0.152749
0.153366
0.154377
0.155945
0.158281
0.161628
0.166209
0.172124
0.178257
0.183165
0.186698
0.189139
0.190771
0.191825
0.192478
0.192851
0.193006
0.192993
0.143237
0.143318
0.143744
0.14455
0.145866
0.147902
0.150922
0.155224
0.161074
0.168574
0.176299
0.182453
0.186873
0.189927
0.191967
0.193285
0.194101
0.194567
0.19476
0.194743
0.132404
0.132515
0.133078
0.134142
0.135879
0.13855
0.142483
0.148039
0.155527
0.165031
0.174735
0.182424
0.187936
0.191741
0.194285
0.195928
0.196945
0.197524
0.197763
0.197743
0.119297
0.11945
0.120205
0.121639
0.123969
0.127519
0.132688
0.139908
0.149512
0.161538
0.173678
0.18324
0.190082
0.194811
0.197977
0.200024
0.20129
0.202007
0.202303
0.202278
0.103091
0.103303
0.104342
0.106331
0.10953
0.114325
0.1212
0.130649
0.142988
0.158161
0.173264
0.185083
0.193538
0.199398
0.203337
0.205894
0.207473
0.208362
0.208726
0.208694
0.082563
0.0828665
0.0843505
0.0872153
0.0917296
0.0983393
0.107623
0.120084
0.135947
0.154998
0.173644
0.188138
0.198524
0.20577
0.210686
0.213905
0.215906
0.217027
0.217478
0.217433
0.0558127
0.0562771
0.0585453
0.0628905
0.0694845
0.0788523
0.0916097
0.108139
0.128474
0.1522
0.17498
0.192572
0.205233
0.21417
0.220333
0.22445
0.227062
0.228544
0.229132
0.229062
0.01953
0.020367
0.0243086
0.031444
0.0415967
0.055337
0.073103
0.095007
0.120847
0.150023
0.177457
0.198518
0.213783
0.224748
0.23251
0.237873
0.241423
0.243515
0.244362
0.24426
-0.0328976
-0.0304573
-0.0221544
-0.00926526
0.00725989
0.0278163
0.0525028
0.0811965
0.113523
0.148783
0.181239
0.206017
0.224137
0.237441
0.247195
0.254284
0.259307
0.262535
0.263969
0.263842
-0.112297
-0.100395
-0.0813629
-0.0581348
-0.0319987
-0.00242572
0.0306938
0.0672111
0.106749
0.148666
0.186619
0.215566
0.23704
0.253264
0.265719
0.275425
0.283025
0.288688
0.292008
0.292631
-0.196814
-0.171169
-0.140694
-0.107177
-0.0712994
-0.0326875
0.00882649
0.0532343
0.100314
0.14958
0.194029
0.22819
0.253977
0.273988
0.289931
0.302955
0.313788
0.323338
0.330412
0.33133
-0.260247
-0.232403
-0.193955
-0.152198
-0.10789
-0.061074
-0.0117094
0.0401724
0.0943994
0.150566
0.200949
0.239558
0.268684
0.291287
0.309231
0.323747
0.335618
0.345405
0.351679
0.352643
-0.310788
-0.280898
-0.23798
-0.190647
-0.140202
-0.0868932
-0.0308791
0.0276372
0.0883556
0.15077
0.206306
0.248505
0.280002
0.304093
0.322891
0.337831
0.349887
0.359625
0.365931
0.36697
-0.351001
-0.320669
-0.274599
-0.223171
-0.168128
-0.10976
-0.048356
0.015777
0.0822265
0.15033
0.210586
0.255925
0.289326
0.314515
0.33388
0.349028
0.361061
0.370506
0.376745
0.377844
-0.384597
-0.354121
-0.305989
-0.251472
-0.19282
-0.130355
-0.0643976
0.00466393
0.076299
0.149649
0.214261
0.262456
0.29756
0.323682
0.343486
0.358763
0.370749
0.380053
0.386146
0.387255
-0.413682
-0.383228
-0.333628
-0.276772
-0.215201
-0.149313
-0.0794856
-0.00612643
0.0701819
0.148452
0.217317
0.268368
0.305188
0.332268
0.352548
0.368004
0.379988
0.389202
0.395141
0.396254
-0.439783
-0.409283
-0.358566
-0.299884
-0.236006
-0.167321
-0.0941762
-0.0169814
0.0636806
0.146753
0.219928
0.273982
0.312653
0.340798
0.361637
0.377333
0.389363
0.398516
0.404324
0.405431
-0.46379
-0.433193
-0.381621
-0.321458
-0.255672
-0.184636
-0.108638
-0.0280241
0.056703
0.144482
0.222131
0.27944
0.3202
0.349593
0.371116
0.38714
0.399278
0.408383
0.414056
0.415189
-0.486467
-0.455653
-0.40334
-0.341955
-0.274595
-0.201568
-0.123114
-0.0394587
0.0490649
0.141517
0.223879
0.284798
0.32797
0.358859
0.381233
0.397686
0.409986
0.419118
0.424621
0.425824
-0.508043
-0.476982
-0.424037
-0.36167
-0.293011
-0.21833
-0.137774
-0.0514159
0.0406476
0.137746
0.22509
0.290029
0.336015
0.36871
0.392152
0.409172
0.421713
0.430886
0.436275
0.437493
-0.528821
-0.49742
-0.443903
-0.380762
-0.311011
-0.234983
-0.152676
-0.0639678
0.0313566
0.133029
0.225621
0.295038
0.344298
0.379181
0.403968
0.421733
0.434622
0.443888
0.449181
0.450362
-0.548815
-0.517107
-0.463116
-0.399293
-0.328661
-0.251554
-0.16784
-0.077152
0.0211281
0.127262
0.225327
0.299668
0.352706
0.39022
0.416688
0.43543
0.448816
0.458233
0.46348
0.464534
-0.568032
-0.536084
-0.481692
-0.417249
-0.345952
-0.268028
-0.18324
-0.0909559
0.00992572
0.120352
0.224035
0.303721
0.361037
0.401684
0.430245
0.450255
0.464342
0.474046
0.479243
0.480093
-0.586554
-0.554314
-0.499533
-0.434597
-0.362837
-0.284345
-0.198814
-0.105326
-0.002248
0.112232
0.221613
0.306966
0.369027
0.413337
0.444507
0.466166
0.481172
0.491279
0.496486
0.497087
-0.6044
-0.571756
-0.516674
-0.451322
-0.379238
-0.300433
-0.214479
-0.120199
-0.0153452
0.102853
0.217942
0.309159
0.376339
0.42487
0.459214
0.483031
0.499231
0.509856
0.515083
0.515426
-0.621302
-0.588357
-0.532963
-0.467373
-0.395094
-0.316195
-0.230141
-0.135471
-0.0293042
0.0922434
0.212913
0.310065
0.382592
0.435793
0.47397
0.500581
0.518431
0.529709
0.534824
0.534847
-0.637301
-0.604198
-0.548419
-0.482663
-0.41034
-0.33155
-0.245688
-0.151035
-0.0440354
0.080434
0.206486
0.309539
0.387352
0.445407
0.488142
0.51849
0.538679
0.550582
0.555272
0.554891
-0.652471
-0.619042
-0.563032
-0.497153
-0.424907
-0.346413
-0.261016
-0.166773
-0.0594244
0.0674969
0.198691
0.307456
0.390277
0.452899
0.500673
0.536171
0.560259
0.573096
0.576077
0.574861
-0.666683
-0.632989
-0.576732
-0.510797
-0.438747
-0.360705
-0.276028
-0.182557
-0.0753462
0.053543
0.189588
0.303803
0.390989
0.457454
0.510232
0.552148
0.582925
0.599444
0.598813
0.594424
-0.680056
-0.646041
-0.589545
-0.523627
-0.451892
-0.374468
-0.290773
-0.198461
-0.0919103
0.0384383
0.179098
0.298509
0.389452
0.45865
0.515005
0.563501
0.604151
0.632801
0.635191
0.610459
-0.692554
-0.658201
-0.60156
-0.535796
-0.464565
-0.387971
-0.30562
-0.214992
-0.109798
0.0213184
0.166485
0.290982
0.38514
0.455329
0.511704
0.563888
0.610789
0.6425
0.636382
0.604873
-0.70412
-0.669481
-0.612632
-0.547114
-0.476516
-0.40091
-0.320306
-0.231797
-0.128663
0.00245808
0.151959
0.281289
0.377848
0.447642
0.496647
0.543722
0.58046
0.591828
0.528049
0.479833
-0.714093
-0.679918
-0.622453
-0.557022
-0.487276
-0.412965
-0.334606
-0.248711
-0.148395
-0.01827
0.135384
0.270191
0.367559
0.436247
0.472436
0.494009
0.512855
0.472218
0.391897
0.338419
-0.767153
-0.686446
-0.631617
-0.566785
-0.498106
-0.425211
-0.348653
-0.266003
-0.169506
-0.0414036
0.116458
0.256988
0.353244
0.421541
0.433589
0.422017
0.387281
0.31505
0.219759
0.167139
-0.71069
-0.697442
-0.642305
-0.580127
-0.512542
-0.441615
-0.369041
-0.291595
-0.201869
-0.0774721
0.087687
0.235978
0.325423
0.369617
0.36431
0.217872
0.0790251
-0.014642
-0.109721
-0.0550972
-0.73578
-0.707726
-0.652756
-0.590847
-0.52389
-0.454513
-0.384005
-0.310843
-0.227903
-0.1097
0.0591309
0.216872
0.302293
0.312352
0.232559
0.0266969
-0.160636
-0.292752
-0.430594
-0.335168
-0.752261
-0.71976
-0.664585
-0.602192
-0.535751
-0.467794
-0.399845
-0.331892
-0.256552
-0.144933
0.0257457
0.193296
0.274522
0.249182
0.0892683
-0.192455
-0.431357
-0.614446
-0.818803
-0.711114
-0.767017
-0.732062
-0.675953
-0.61289
-0.546887
-0.480332
-0.415435
-0.353027
-0.286371
-0.183879
-0.00800276
0.172959
0.247913
0.175003
-0.0814489
-0.423922
-0.741883
-1.01613
-1.32011
-1.27187
-0.77947
-0.7438
-0.686887
-0.623333
-0.557759
-0.492694
-0.431121
-0.375058
-0.318934
-0.230192
-0.0542066
0.146601
0.22016
0.0888121
-0.250842
-0.648232
-1.04765
-1.41991
-1.84498
-2.20484
-0.790624
-0.754865
-0.697463
-0.633629
-0.568421
-0.504827
-0.446699
-0.397646
-0.354119
-0.283533
-0.109547
0.112963
0.187369
-0.0041505
-0.410473
-0.836586
-1.27953
-1.6561
-1.83652
-2.14199
-0.801003
-0.765148
-0.707579
-0.643617
-0.578807
-0.51669
-0.462218
-0.42096
-0.392778
-0.348183
-0.186882
0.0629507
0.1398
-0.133817
-0.56266
-0.983642
-1.39086
-1.64676
-1.70213
-1.75664
-0.810847
-0.7748
-0.717097
-0.653045
-0.588622
-0.527972
-0.477374
-0.444985
-0.436002
-0.429561
-0.303238
-0.0315251
0.0442626
-0.30336
-0.708396
-1.08782
-1.49023
-1.69361
-1.6652
-1.67896
-0.82016
-0.783783
-0.72581
-0.661604
-0.597438
-0.538152
-0.491443
-0.46884
-0.483516
-0.535078
-0.488307
-0.209758
-0.131756
-0.509378
-0.861803
-1.15867
-1.55642
-1.80507
-1.68097
-1.63951
-0.828875
-0.791896
-0.733476
-0.668947
-0.60481
-0.546547
-0.503449
-0.491216
-0.533945
-0.674487
-0.78405
-0.520607
-0.426135
-0.766332
-1.02939
-1.1538
-1.29987
-1.47167
-1.45831
-1.43611
-0.836761
-0.798954
-0.739843
-0.674715
-0.610227
-0.552411
-0.512163
-0.510226
-0.583151
-0.8507
-1.2278
-0.995174
-0.826512
-1.08097
-1.24023
-1.11265
-0.823355
-1.07249
-1.32333
-1.38858
-0.843442
-0.804671
-0.744617
-0.678552
-0.61317
-0.554972
-0.516084
-0.522036
-0.63011
-1.04136
-1.79243
-1.59609
-1.29257
-1.4555
-1.71714
-1.73483
-1.65112
-1.70248
-1.75715
-1.80054
-0.848892
-0.808894
-0.747531
-0.680137
-0.61321
-0.553453
-0.51378
-0.522685
-0.658184
-1.19158
-2.30356
-2.12247
-1.70642
-1.8858
-2.5397
-3.24622
-3.37866
-3.15556
-2.86907
-2.74415
-0.852942
-0.811471
-0.748463
-0.679266
-0.610047
-0.547392
-0.504083
-0.509443
-0.647062
-1.23802
-2.51393
-2.30879
-1.77579
-2.0282
-2.97062
-4.265
-4.47601
-3.89618
-3.37663
-3.18612
-0.85547
-0.812395
-0.747433
-0.675955
-0.603679
-0.536703
-0.486773
-0.480575
-0.594901
-1.11619
-2.23755
-1.89915
-1.29547
-1.34873
-1.94463
-2.7261
-2.82832
-2.38167
-2.00122
-1.85172
-0.856561
-0.811859
-0.744627
-0.670452
-0.594453
-0.521872
-0.462462
-0.437369
-0.502693
-0.843392
-1.50318
-1.03764
-0.380134
-0.0985332
-0.0695668
-0.154725
-0.160988
-0.0223997
0.0560259
0.0802849
-0.856643
-0.810233
-0.740421
-0.663211
-0.582931
-0.503897
-0.433224
-0.384446
-0.387178
-0.510283
-0.647574
-0.193287
0.332867
0.648784
0.850321
0.988115
1.08601
1.13394
1.1486
1.14964
-0.855923
-0.807686
-0.735179
-0.654625
-0.569943
-0.48415
-0.401624
-0.328763
-0.273694
-0.231082
-0.0796396
0.313904
0.693407
0.980211
1.16948
1.3026
1.39059
1.43831
1.45759
1.4597
-0.853511
-0.803827
-0.728714
-0.644874
-0.555895
-0.463749
-0.370396
-0.276882
-0.178995
-0.0467925
0.196605
0.523885
0.807051
1.03526
1.19389
1.30397
1.37946
1.42754
1.45278
1.45762
-0.846719
-0.797045
-0.720166
-0.633408
-0.540725
-0.443267
-0.341224
-0.232581
-0.108179
0.0628908
0.311823
0.583267
0.809352
0.987057
1.11628
1.20899
1.27551
1.32178
1.34919
1.35496
-0.834768
-0.785162
-0.70745
-0.618543
-0.523292
-0.422151
-0.314403
-0.196619
-0.0589868
0.122991
0.353014
0.578691
0.764126
0.908215
1.01616
1.09636
1.15614
1.19981
1.22383
1.23027
-0.81114
-0.763312
-0.687353
-0.59768
-0.501372
-0.398988
-0.288958
-0.167591
-0.0263379
0.151889
0.357447
0.546872
0.701011
0.821515
0.91403
0.984749
1.03895
1.07942
1.1023
1.10899
-0.77001
-0.726334
-0.655079
-0.566763
-0.472499
-0.371652
-0.262924
-0.143191
-0.00547926
0.160815
0.341245
0.501
0.629788
0.731445
0.811201
0.87362
0.922544
0.959053
0.980655
0.98793
-0.708752
-0.672133
-0.604055
-0.52181
-0.432738
-0.337504
-0.234673
-0.121352
0.00712783
0.157706
0.313404
0.446114
0.552389
0.636717
0.703821
0.757511
0.799956
0.832517
0.854158
0.861179
-0.615076
-0.589982
-0.53054
-0.458148
-0.379207
-0.294062
-0.201352
-0.0991073
0.0155694
0.146389
0.276987
0.385116
0.469698
0.535965
0.588168
0.629918
0.663599
0.689364
0.705525
0.710128
-0.478166
-0.465674
-0.425449
-0.370893
-0.309183
-0.240268
-0.16296
-0.076067
0.0223971
0.134502
0.245184
0.335643
0.405148
0.458268
0.498764
0.529454
0.552526
0.570506
0.58288
0.585971
-0.330496
-0.326017
-0.303499
-0.270057
-0.228829
-0.178974
-0.119928
-0.0503584
0.030847
0.124645
0.217149
0.292033
0.348717
0.39099
0.421864
0.443964
0.459642
0.47003
0.475619
0.476742
-0.202522
-0.200343
-0.190509
-0.173222
-0.149092
-0.116922
-0.0752343
-0.0227856
0.0413934
0.117611
0.193575
0.254751
0.300236
0.333077
0.356301
0.372201
0.382344
0.388367
0.391309
0.39169
-0.104588
-0.104741
-0.101978
-0.0947609
-0.0819954
-0.0623671
-0.0343013
0.0037902
0.0530135
0.113503
0.174658
0.223762
0.259846
0.285467
0.302791
0.313854
0.320634
0.324387
0.325884
0.325924
-0.0390477
-0.0399054
-0.0409305
-0.0391625
-0.0330964
-0.021098
-0.00201648
0.0255351
0.0627689
0.110032
0.158603
0.197603
0.225842
0.245322
0.258256
0.266485
0.271211
0.273465
0.274207
0.274167
0.000705896
-5.46209e-05
-0.00139761
-0.00135521
0.00150106
0.00856843
0.0215371
0.0415806
0.0697336
0.106339
0.1444
0.174961
0.197023
0.21225
0.222172
0.22814
0.231397
0.232875
0.233304
0.233257
0.0244364
0.0239951
0.0231689
0.0232084
0.0251346
0.0298442
0.0390939
0.053494
0.0745952
0.102801
0.132551
0.156508
0.173659
0.185229
0.19261
0.197045
0.19944
0.200477
0.200768
0.200731
0.0396469
0.0394105
0.0389586
0.0390734
0.0404964
0.0440382
0.0507093
0.0615111
0.0774308
0.0990242
0.122025
0.140556
0.153776
0.162704
0.168397
0.171769
0.173541
0.174291
0.174498
0.174468
0.0494484
0.0493249
0.0490926
0.0492827
0.0504082
0.0530373
0.057978
0.0660779
0.0781797
0.0947551
0.112534
0.126902
0.137143
0.144009
0.148342
0.150891
0.152229
0.15279
0.152945
0.152921
0.055393
0.0553307
0.0552287
0.0554541
0.0563795
0.0584278
0.0622183
0.068355
0.0775635
0.0902724
0.103973
0.115051
0.122927
0.128194
0.13151
0.133466
0.134474
0.13489
0.135002
0.13498
0.0585202
0.0584882
0.058458
0.058686
0.0594414
0.0610437
0.0639253
0.0686445
0.075699
0.0854521
0.0959974
0.104535
0.110603
0.114654
0.117201
0.118683
0.11945
0.119762
0.119843
0.119824
0.0595709
0.0595544
0.0595614
0.0597745
0.0603908
0.0616462
0.0638642
0.0675177
0.0729238
0.0804161
0.0885305
0.0951004
0.0997654
0.102873
0.104833
0.10596
0.106539
0.10677
0.106827
0.10681
0.0590624
0.0590531
0.0590734
0.0592579
0.0597527
0.0607372
0.0624599
0.0652703
0.069432
0.0751915
0.0814308
0.0864824
0.0900659
0.092452
0.0939543
0.0948147
0.0952523
0.0954231
0.0954625
0.0954481
0.0573577
0.0573519
0.0573744
0.057527
0.0579195
0.0586894
0.0600245
0.0621827
0.0653925
0.0698223
0.07462
0.0785018
0.0812518
0.083067
0.0842432
0.0848891
0.0852173
0.0853428
0.0853697
0.0853574
0.0547272
0.0547232
0.0547433
0.0548652
0.0551722
0.0557684
0.0567884
0.0584954
0.0609406
0.0643454
0.0680316
0.0710129
0.0731264
0.0745366
0.0754051
0.0759013
0.0761494
0.0762414
0.0762595
0.0762493
0.0513799
0.0513768
0.0513929
0.0514881
0.0517265
0.0521882
0.0529817
0.054251
0.056165
0.0587858
0.0616179
0.0639045
0.0655237
0.0666091
0.0672665
0.0676414
0.0678274
0.0678947
0.0679066
0.0678981
0.0474771
0.0474746
0.0474867
0.0475599
0.0477433
0.0480986
0.0487086
0.0496788
0.0511474
0.053165
0.0553372
0.0570897
0.058336
0.0591567
0.0596561
0.0599397
0.0600789
0.0601274
0.0601348
0.0601278
0.0431454
0.0431431
0.0431517
0.043207
0.043347
0.0436186
0.0440849
0.044822
0.0459589
0.0474994
0.0491617
0.0505026
0.0514594
0.0520749
0.0524538
0.0526675
0.0527711
0.0528061
0.0528105
0.0528046
0.038483
0.0384807
0.0384865
0.0385279
0.038634
0.0388404
0.0391945
0.0397559
0.040596
0.0417996
0.0430661
0.044097
0.0448142
0.0452791
0.0455642
0.0457236
0.0457998
0.0458242
0.0458264
0.0458217
0.0335683
0.0335661
0.0335696
0.0335997
0.0336783
0.0338326
0.0340988
0.0345231
0.0351563
0.0360708
0.0370279
0.0378148
0.0383476
0.0386968
0.0389105
0.0390295
0.0390853
0.039102
0.0391025
0.0390988
0.0284621
0.0284601
0.0284613
0.0284821
0.0285393
0.028653
0.0288503
0.0291659
0.029633
0.030325
0.0310429
0.0316357
0.0320257
0.0322832
0.0324401
0.0325267
0.0325665
0.0325776
0.0325771
0.032574
0.0232111
0.0232091
0.0232087
0.0232224
0.0232623
0.0233435
0.0234864
0.0237144
0.0240767
0.0245671
0.0250869
0.0255097
0.0258092
0.0259957
0.0261081
0.0261687
0.0261952
0.0262011
0.0261995
0.026197
0.0178519
0.0178499
0.0178481
0.0178558
0.0178822
0.0179382
0.0180377
0.0182009
0.0184521
0.0187954
0.0191618
0.0194577
0.019664
0.019795
0.0198723
0.0199134
0.0199304
0.0199329
0.0199308
0.0199289
0.012414
0.0124122
0.0124095
0.0124129
0.0124285
0.0124632
0.0125282
0.0126341
0.0127948
0.0130165
0.0132538
0.0134442
0.0135764
0.0136615
0.0137112
0.0137364
0.0137457
0.0137455
0.013743
0.0137415
0.00692046
0.00691918
0.00691651
0.00691685
0.00692418
0.0069423
0.00697617
0.00703201
0.00711632
0.00723312
0.00735961
0.00746168
0.00753242
0.00757717
0.00760236
0.007614
0.00761665
0.00761409
0.00761151
0.00761053
0.00138911
0.00138887
0.00138668
0.00138283
0.00138242
0.0013846
0.00138977
0.00139885
0.0014131
0.00143363
0.00145927
0.00148342
0.00150094
0.00151247
0.00151934
0.00152305
0.00152403
0.00152224
0.00151809
0.00151736
-0.928568
-0.642275
-0.334368
-0.0883626
0.110116
0.271728
0.410799
0.529967
0.588286
0.562777
-0.426012
-0.240113
-0.0509333
0.110873
0.248636
0.36506
0.460844
0.530148
0.565803
0.574013
-0.0955562
0.023631
0.147729
0.258348
0.354097
0.434622
0.498682
0.544928
0.575666
0.590495
0.12612
0.206656
0.292803
0.370361
0.437951
0.494966
0.541031
0.576243
0.602786
0.618991
0.288556
0.346039
0.406237
0.462867
0.512841
0.555737
0.591417
0.620076
0.642653
0.659163
0.41462
0.45658
0.503099
0.547298
0.586878
0.621673
0.651443
0.675717
0.694944
0.711525
0.520692
0.554587
0.594371
0.631569
0.665852
0.696447
0.722831
0.744268
0.760666
0.777372
0.617365
0.64982
0.687421
0.722596
0.754905
0.783656
0.808107
0.827704
0.84167
0.858527
0.717629
0.752864
0.791861
0.827324
0.858917
0.886446
0.909435
0.927367
0.939685
0.957045
0.835996
0.874827
0.91484
0.950322
0.980652
1.00616
1.02715
1.04348
1.05524
1.07333
0.983024
1.02213
1.05887
1.09024
1.11654
1.1391
1.15854
1.17437
1.18701
1.20508
1.15894
1.19112
1.21766
1.24039
1.26071
1.27975
1.29773
1.31444
1.32993
1.34808
1.34836
1.36576
1.38103
1.39737
1.41341
1.42815
1.44157
1.45564
1.47334
1.49354
1.53036
1.54
1.5517
1.5627
1.57216
1.58183
1.59263
1.60407
1.61552
1.63092
1.73771
1.74141
1.72661
1.71206
1.70592
1.71163
1.73024
1.76052
1.79259
1.81921
2.04438
1.9096
1.83299
1.79045
1.77295
1.77708
1.80436
1.86083
1.96366
2.18809
0.297254
0.295256
0.290851
0.282472
0.270577
0.258869
0.249103
0.241623
0.236329
0.233221
0.232719
0.235003
0.239518
0.246112
0.254875
0.26583
0.278015
0.288687
0.294644
0.297516
0.221059
0.226999
0.233696
0.238744
0.241747
0.241956
0.239726
0.236341
0.233108
0.230889
0.230536
0.232374
0.2355
0.239158
0.242303
0.243517
0.241951
0.237836
0.23211
0.225247
0.212233
0.214555
0.218488
0.222197
0.224829
0.226709
0.227822
0.227954
0.227335
0.226695
0.22672
0.227536
0.228628
0.229199
0.228741
0.227346
0.225193
0.222109
0.218134
0.214859
0.206974
0.207821
0.210599
0.214325
0.217438
0.219641
0.221087
0.221959
0.222377
0.222516
0.222751
0.22316
0.223317
0.222969
0.222034
0.220371
0.217832
0.214394
0.210908
0.209186
0.206229
0.206497
0.207787
0.209818
0.211836
0.213861
0.215653
0.217007
0.217909
0.2185
0.218899
0.21906
0.218828
0.218072
0.216729
0.214931
0.213026
0.211077
0.209319
0.208638
0.205468
0.205577
0.206172
0.207213
0.208353
0.209447
0.210529
0.211644
0.21262
0.213388
0.213895
0.21404
0.213775
0.213166
0.212364
0.211578
0.210523
0.209498
0.208671
0.208384
0.203586
0.20363
0.203926
0.204535
0.205248
0.206193
0.207277
0.208224
0.209156
0.209994
0.210615
0.210847
0.210706
0.210308
0.209682
0.208843
0.208275
0.207686
0.207273
0.207151
0.200813
0.200833
0.200986
0.201338
0.201806
0.202373
0.203049
0.203842
0.204704
0.20557
0.206308
0.206719
0.206792
0.206643
0.20639
0.206098
0.20579
0.205487
0.205293
0.205242
0.197581
0.197593
0.197696
0.197938
0.198295
0.198761
0.199354
0.200076
0.20092
0.201854
0.202747
0.203366
0.203663
0.20374
0.203682
0.203554
0.203402
0.203253
0.20316
0.203133
0.19397
0.193975
0.194051
0.194222
0.194493
0.194878
0.195407
0.196107
0.196991
0.198042
0.199143
0.200011
0.200545
0.200837
0.200975
0.201019
0.201013
0.200985
0.200964
0.200957
0.190011
0.190015
0.190077
0.190224
0.190467
0.190835
0.191366
0.192103
0.193082
0.194314
0.195685
0.196848
0.197645
0.198154
0.198465
0.198644
0.198741
0.198787
0.198809
0.198812
0.185688
0.185688
0.185753
0.185902
0.186153
0.186545
0.187128
0.187963
0.189109
0.190599
0.192318
0.193841
0.194915
0.195662
0.196146
0.19645
0.196635
0.196741
0.196794
0.196806
0.180981
0.180979
0.18105
0.181218
0.181504
0.181956
0.182641
0.183636
0.185024
0.186863
0.189029
0.190983
0.192423
0.193411
0.194077
0.194508
0.194777
0.194936
0.195017
0.195037
0.175823
0.17582
0.175905
0.176105
0.17645
0.176998
0.177834
0.179057
0.180778
0.183079
0.185814
0.18831
0.190153
0.191445
0.19232
0.192892
0.193252
0.193467
0.193578
0.193606
0.170112
0.170107
0.170214
0.170463
0.170892
0.171576
0.17262
0.174154
0.176315
0.179214
0.182672
0.18584
0.188186
0.189839
0.190961
0.191697
0.192163
0.192442
0.192586
0.192622
0.163708
0.163702
0.163837
0.164154
0.164699
0.165567
0.166891
0.168834
0.171572
0.175241
0.179616
0.183622
0.186588
0.188681
0.190103
0.191037
0.191629
0.191985
0.192168
0.192213
0.15642
0.156412
0.156588
0.156996
0.157697
0.15881
0.160504
0.162985
0.166472
0.17113
0.176662
0.181715
0.185451
0.188084
0.189873
0.191049
0.191794
0.192243
0.192473
0.192531
0.147991
0.14798
0.148211
0.148744
0.149655
0.151095
0.15328
0.156469
0.160927
0.16685
0.173844
0.1802
0.184887
0.188186
0.190426
0.191899
0.192833
0.193396
0.193684
0.193755
0.138066
0.138053
0.138361
0.139066
0.140264
0.142144
0.144985
0.149108
0.154833
0.162375
0.171204
0.179178
0.185036
0.189155
0.191951
0.193789
0.194957
0.195661
0.196023
0.19611
0.126156
0.126141
0.126563
0.127514
0.129105
0.131588
0.135318
0.140688
0.14807
0.15768
0.168805
0.17877
0.186063
0.191187
0.194668
0.19696
0.198419
0.199304
0.199758
0.199866
0.111583
0.11157
0.112165
0.113471
0.115617
0.11894
0.123899
0.130959
0.140517
0.152764
0.16673
0.179121
0.188159
0.194511
0.198835
0.201691
0.203521
0.20464
0.205219
0.205353
0.093359
0.0933604
0.0942354
0.0960734
0.0990315
0.103582
0.110295
0.119671
0.132095
0.147671
0.165104
0.180402
0.191532
0.199376
0.204744
0.208311
0.210613
0.212039
0.212788
0.212962
0.0699406
0.0699846
0.0713465
0.0740392
0.0782907
0.0847523
0.0940442
0.10663
0.122807
0.142525
0.164101
0.182803
0.196393
0.206032
0.212698
0.217177
0.220096
0.221928
0.22291
0.223146
0.038752
0.0389215
0.0411955
0.0454344
0.0519524
0.061537
0.0746902
0.0917291
0.112764
0.137524
0.163916
0.186493
0.202902
0.214666
0.222949
0.228636
0.232423
0.234837
0.236154
0.236481
-0.00481196
-0.00426769
0.000112652
0.00758486
0.01837
0.0331335
0.0520242
0.0751111
0.102239
0.132929
0.164725
0.191559
0.211092
0.225298
0.235565
0.24288
0.247971
0.251389
0.253328
0.25377
-0.0690777
-0.0667519
-0.0566238
-0.0420736
-0.0232523
-0.000251648
0.0267081
0.057498
0.0918147
0.129116
0.166696
0.197989
0.220818
0.237685
0.250244
0.25962
0.266582
0.271664
0.27481
0.275251
-0.146463
-0.142145
-0.123381
-0.0971715
-0.0677015
-0.0351464
0.000575609
0.0394923
0.0814519
0.126036
0.170364
0.207271
0.234575
0.255295
0.271341
0.283972
0.294097
0.302131
0.306129
0.3079
-0.225466
-0.213992
-0.18584
-0.149641
-0.110601
-0.0689644
-0.0247175
0.0222195
0.0717546
0.123587
0.174684
0.217197
0.248824
0.273092
0.292218
0.307592
0.320089
0.330239
0.336832
0.339933
-0.283117
-0.270614
-0.237586
-0.194958
-0.148757
-0.0997814
-0.0481857
0.00593106
0.0624317
0.120997
0.178266
0.225569
0.260525
0.287133
0.307841
0.324201
0.337241
0.347606
0.35445
0.357623
-0.328955
-0.316164
-0.279789
-0.232699
-0.181473
-0.126987
-0.0695168
-0.00932129
0.0532955
0.11788
0.180653
0.232105
0.269718
0.297956
0.319612
0.336483
0.349743
0.360153
0.367118
0.370089
-0.366033
-0.353446
-0.31512
-0.26476
-0.209699
-0.150917
-0.0887255
-0.023437
0.0445437
0.114632
0.182533
0.237763
0.277682
0.307261
0.329625
0.346804
0.360134
0.370473
0.377439
0.380358
-0.397609
-0.385245
-0.345606
-0.292876
-0.234816
-0.172526
-0.10635
-0.0366457
0.0361085
0.111203
0.183877
0.242691
0.284816
0.315662
0.33869
0.356168
0.36959
0.379909
0.386931
0.389796
-0.425389
-0.413179
-0.372623
-0.318081
-0.257688
-0.192549
-0.123029
-0.0495247
0.0275069
0.107303
0.184677
0.247141
0.291554
0.323747
0.347507
0.365333
0.378883
0.389204
0.396277
0.399094
-0.450596
-0.438462
-0.3972
-0.34123
-0.278974
-0.211523
-0.139187
-0.062323
0.0186232
0.102915
0.184992
0.251275
0.298179
0.331887
0.3565
0.374762
0.3885
0.398845
0.405992
0.408755
-0.474059
-0.461942
-0.420066
-0.36293
-0.299126
-0.229736
-0.155009
-0.075221
0.00928526
0.0978801
0.184746
0.255134
0.304836
0.340309
0.365954
0.384769
0.398765
0.409201
0.416312
0.419029
-0.496262
-0.484137
-0.441705
-0.383599
-0.318534
-0.247523
-0.170768
-0.0884262
-0.0006701
0.0920762
0.183849
0.258696
0.311579
0.34914
0.37605
0.395566
0.409906
0.420482
0.427625
0.430295
-0.517561
-0.505323
-0.462345
-0.403463
-0.337365
-0.265011
-0.186559
-0.102029
-0.0113448
0.0853813
0.182175
0.261864
0.318378
0.358421
0.38689
0.407301
0.422108
0.432874
0.440056
0.442698
-0.538083
-0.525709
-0.482213
-0.422658
-0.355696
-0.282268
-0.202432
-0.116066
-0.0228048
0.0776941
0.179593
0.264496
0.325128
0.368109
0.398501
0.42006
0.435486
0.446545
0.453772
0.456382
-0.557793
-0.545235
-0.501367
-0.441264
-0.373556
-0.299294
-0.21839
-0.130545
-0.0350687
0.0689259
0.175967
0.266427
0.331655
0.37808
0.41083
0.433865
0.450109
0.461559
0.468877
0.471494
-0.576811
-0.564037
-0.519749
-0.459201
-0.390937
-0.316055
-0.234379
-0.145429
-0.0481269
0.0590512
0.171166
0.267462
0.337729
0.388126
0.423736
0.448638
0.465981
0.477971
0.485447
0.488008
-0.595053
-0.582147
-0.537466
-0.476454
-0.407794
-0.332488
-0.250326
-0.16064
-0.0619401
0.0480539
0.1651
0.267402
0.343079
0.397928
0.436937
0.464185
0.483
0.495793
0.503541
0.50599
-0.612519
-0.599401
-0.554431
-0.492984
-0.424061
-0.348525
-0.266149
-0.176088
-0.0764305
0.0359509
0.15772
0.266087
0.347419
0.407057
0.450047
0.480291
0.500993
0.514795
0.522848
0.525153
-0.628987
-0.61577
-0.570479
-0.508741
-0.439652
-0.364071
-0.28175
-0.191671
-0.0915034
0.0228052
0.149013
0.263417
0.350408
0.415053
0.462527
0.496595
0.519914
0.534978
0.543189
0.545194
-0.644635
-0.631295
-0.585631
-0.523697
-0.454534
-0.379066
-0.297026
-0.207279
-0.107048
0.00871001
0.139
0.259298
0.35178
0.421335
0.473662
0.512432
0.539593
0.556482
0.564361
0.56554
-0.659357
-0.645877
-0.599899
-0.537786
-0.468638
-0.393433
-0.311885
-0.222784
-0.122931
-0.00625406
0.127766
0.253712
0.351313
0.425418
0.482513
0.526682
0.559521
0.580204
0.587203
0.585355
-0.673221
-0.659563
-0.613225
-0.550978
-0.481939
-0.407113
-0.326246
-0.238089
-0.139026
-0.0219339
0.115422
0.246727
0.349048
0.426753
0.487486
0.537121
0.577613
0.606698
0.616902
0.606251
-0.686171
-0.672383
-0.6257
-0.563389
-0.4946
-0.420343
-0.340409
-0.253607
-0.155901
-0.0390402
0.101239
0.23786
0.344558
0.424965
0.48727
0.540961
0.58919
0.630577
0.647727
0.645391
-0.698234
-0.684174
-0.637305
-0.575004
-0.506628
-0.433132
-0.354347
-0.269322
-0.173604
-0.0577334
0.0849813
0.227026
0.3377