/*--------------------------------*- C++ -*----------------------------------*\
  =========                 |
  \\      /  F ield         | OpenFOAM: The Open Source CFD Toolbox
   \\    /   O peration     | Website:  https://openfoam.org
    \\  /    A nd           | Version:  9
     \\/     M anipulation  |
\*---------------------------------------------------------------------------*/
FoamFile
{
    format      ascii;
    class       volVectorField;
    location    "8";
    object      U;
}
// * * * * * * * * * * * * * * * * * * * * * * * * * * * * * * * * * * * * * //

dimensions      [0 1 -1 0 0 0 0];

internalField   nonuniform List<vector> 
8800
(
(0.979681 -0.0914457 0)
(1.00208 -0.058801 0)
(0.999249 -0.0319213 0)
(0.999769 -0.0161777 0)
(1.00016 -0.00852553 0)
(1.00029 -0.00480504 0)
(1.00019 -0.00271115 0)
(1.0001 -0.00146262 0)
(1.00002 -0.000667678 0)
(1.00004 -0.000122961 0)
(1.00001 0.000436061 0)
(1.00006 0.00109078 0)
(1.00015 0.00208468 0)
(1.00024 0.00368736 0)
(1.00027 0.00642041 0)
(0.999976 0.0116932 0)
(0.999533 0.0228182 0)
(0.998926 0.0430903 0)
(1.00681 0.079073 0)
(0.774962 0.0478385 0)
(0.35996 -0.0146626 0)
(1.04732 -0.07181 0)
(1.08892 -0.0656467 0)
(1.05028 -0.0508941 0)
(1.02601 -0.0375585 0)
(1.01261 -0.0252468 0)
(1.00645 -0.0159792 0)
(1.00363 -0.00968748 0)
(1.00215 -0.00525918 0)
(1.00147 -0.00191237 0)
(1.00138 0.000843648 0)
(1.00174 0.00387671 0)
(1.00278 0.00759902 0)
(1.00477 0.0127739 0)
(1.00887 0.0203895 0)
(1.0182 0.0313112 0)
(1.03666 0.0444822 0)
(1.06813 0.0577677 0)
(1.09522 0.0704948 0)
(0.847058 0.0553515 0)
(0.221084 -0.00118931 0)
(1.07707 -0.0476031 0)
(1.09879 -0.0453292 0)
(1.06389 -0.0366168 0)
(1.03962 -0.0296423 0)
(1.02335 -0.0229858 0)
(1.01332 -0.0163312 0)
(1.0078 -0.0104105 0)
(1.00507 -0.00545554 0)
(1.00396 -0.000814984 0)
(1.00429 0.0038255 0)
(1.00607 0.00843128 0)
(1.00996 0.0137695 0)
(1.01749 0.0200627 0)
(1.0304 0.026679 0)
(1.05039 0.0332854 0)
(1.07953 0.0406261 0)
(1.10619 0.0484673 0)
(0.947665 0.0391652 0)
(0.220839 0.00119677 0)
(0.183692 -0.000470596 0)
(1.0273 -0.0304191 0)
(1.10752 -0.0351573 0)
(1.07749 -0.030067 0)
(1.05174 -0.0246342 0)
(1.03445 -0.0196649 0)
(1.02291 -0.0150992 0)
(1.01528 -0.0104879 0)
(1.0108 -0.00572467 0)
(1.00897 -0.000731643 0)
(1.00948 0.00430582 0)
(1.01251 0.00904867 0)
(1.01839 0.0136202 0)
(1.02776 0.0180081 0)
(1.04178 0.0225923 0)
(1.06286 0.0276532 0)
(1.09447 0.033294 0)
(1.09907 0.0355275 0)
(0.844526 0.0191998 0)
(0.183288 0.000479446 0)
(0.170241 -9.08115e-05 0)
(0.979307 -0.0136616 0)
(1.1041 -0.0216354 0)
(1.08336 -0.0223082 0)
(1.05569 -0.0213464 0)
(1.03757 -0.0189951 0)
(1.02576 -0.0155202 0)
(1.01812 -0.0112442 0)
(1.01351 -0.00630285 0)
(1.01157 -0.000723571 0)
(1.01201 0.00488902 0)
(1.01511 0.0100187 0)
(1.02105 0.014449 0)
(1.03052 0.018196 0)
(1.04508 0.0209701 0)
(1.06771 0.0225681 0)
(1.09851 0.0227985 0)
(1.07794 0.0194913 0)
(0.781386 0.00645406 0)
(0.169651 9.99106e-05 0)
(0.167606 2.01561e-05 0)
(0.946846 -0.00587296 0)
(1.08975 -0.0143652 0)
(1.08144 -0.0189868 0)
(1.05788 -0.0199527 0)
(1.04298 -0.0190992 0)
(1.03226 -0.0163388 0)
(1.02482 -0.0122124 0)
(1.02001 -0.00688227 0)
(1.01763 -0.000595341 0)
(1.01824 0.00576872 0)
(1.02158 0.0114019 0)
(1.02746 0.015905 0)
(1.03629 0.0190997 0)
(1.0487 0.0207298 0)
(1.06747 0.0205241 0)
(1.09083 0.0176894 0)
(1.05264 0.0108519 0)
(0.753128 0.00214164 0)
(0.166768 -1.04141e-05 0)
(0.16706 2.96056e-05 0)
(0.925562 -0.00270619 0)
(1.06935 -0.00992083 0)
(1.07191 -0.0162586 0)
(1.05659 -0.0192034 0)
(1.04418 -0.0187652 0)
(1.03528 -0.0163994 0)
(1.02878 -0.0123089 0)
(1.02429 -0.00692525 0)
(1.0219 -0.000313004 0)
(1.02241 0.00649505 0)
(1.02548 0.012244 0)
(1.0307 0.016642 0)
(1.03817 0.0195038 0)
(1.0485 0.0205625 0)
(1.06258 0.0192645 0)
(1.07525 0.014339 0)
(1.0282 0.00653701 0)
(0.739257 0.000879825 0)
(0.165924 -1.81974e-05 0)
(0.167135 1.95573e-05 0)
(0.913311 -0.00121806 0)
(1.05196 -0.00573391 0)
(1.06159 -0.0108299 0)
(1.05377 -0.0139211 0)
(1.04605 -0.0146211 0)
(1.0394 -0.0132989 0)
(1.03386 -0.0102406 0)
(1.0297 -0.00569515 0)
(1.02746 0.000254347 0)
(1.02776 0.00642207 0)
(1.03047 0.0113952 0)
(1.03489 0.0147788 0)
(1.04072 0.0165145 0)
(1.04774 0.0164425 0)
(1.05563 0.0141065 0)
(1.05996 0.00946519 0)
(1.01025 0.0037007 0)
(0.732269 0.000484169 0)
(0.165628 -6.98801e-07 0)
(0.167231 1.69103e-05 0)
(0.907234 -0.000460903 0)
(1.04119 -0.00274676 0)
(1.05356 -0.00583762 0)
(1.05018 -0.00815371 0)
(1.04579 -0.00916315 0)
(1.04137 -0.00871979 0)
(1.03721 -0.00680432 0)
(1.03377 -0.00347511 0)
(1.0318 0.00109777 0)
(1.03183 0.00580038 0)
(1.03387 0.00934805 0)
(1.03698 0.0114039 0)
(1.04091 0.0119357 0)
(1.04507 0.0110186 0)
(1.04898 0.00875184 0)
(1.04892 0.0054257 0)
(0.999687 0.00203517 0)
(0.728482 0.000320023 0)
(0.165289 5.23024e-06 0)
(0.167483 1.99667e-05 0)
(0.904682 -3.63418e-05 0)
(1.03581 -0.00101917 0)
(1.04889 -0.0025549 0)
(1.0476 -0.00389584 0)
(1.04521 -0.00463653 0)
(1.0424 -0.00453352 0)
(1.03942 -0.0033995 0)
(1.03668 -0.00114971 0)
(1.03488 0.00201942 0)
(1.03459 0.00521696 0)
(1.03587 0.00738147 0)
(1.03782 0.00830832 0)
(1.04017 0.00810758 0)
(1.0424 0.00698838 0)
(1.04414 0.00521572 0)
(1.04231 0.00311307 0)
(0.994007 0.00122503 0)
(0.726259 0.000250563 0)
(0.164997 8.57448e-06 0)
(0.167846 2.15914e-05 0)
(0.903948 0.000222662 0)
(1.03351 -0.000101412 0)
(1.04664 -0.000727177 0)
(1.0462 -0.0013129 0)
(1.04483 -0.00162902 0)
(1.04302 -0.00148504 0)
(1.04089 -0.00069616 0)
(1.03872 0.0008358 0)
(1.03701 0.00297175 0)
(1.03637 0.00500151 0)
(1.03689 0.00612643 0)
(1.03787 0.00635449 0)
(1.03907 0.00582557 0)
(1.04013 0.00477346 0)
(1.04084 0.00345445 0)
(1.03839 0.00208894 0)
(0.990708 0.000930437 0)
(0.72464 0.000255288 0)
(0.164659 1.38693e-05 0)
(0.168317 2.41497e-05 0)
(0.904177 0.000377228 0)
(1.03286 0.00043982 0)
(1.04589 0.000347788 0)
(1.04578 0.000277942 0)
(1.04488 0.000351407 0)
(1.0436 0.000683756 0)
(1.04196 0.00139484 0)
(1.04011 0.00254859 0)
(1.03838 0.00401927 0)
(1.03734 0.00524964 0)
(1.03714 0.00576401 0)
(1.03744 0.00547613 0)
(1.03787 0.00476439 0)
(1.03826 0.00379203 0)
(1.03847 0.00273457 0)
(1.03577 0.00172417 0)
(0.9884 0.000871819 0)
(0.723161 0.000291751 0)
(0.164236 1.93528e-05 0)
(0.1689 3.00605e-05 0)
(0.905123 0.000553059 0)
(1.03318 0.000865461 0)
(1.0461 0.0011119 0)
(1.0461 0.00140653 0)
(1.0454 0.00180943 0)
(1.04435 0.00237776 0)
(1.04292 0.00316434 0)
(1.04117 0.00417024 0)
(1.03928 0.00524739 0)
(1.03782 0.00592971 0)
(1.03703 0.00592248 0)
(1.0367 0.00538937 0)
(1.0366 0.00452905 0)
(1.03658 0.0035537 0)
(1.03651 0.00258644 0)
(1.03368 0.00170173 0)
(0.986416 0.000943029 0)
(0.721586 0.000353185 0)
(0.163697 2.56772e-05 0)
(0.169647 3.78768e-05 0)
(0.906637 0.00074283 0)
(1.0342 0.00127135 0)
(1.047 0.00178662 0)
(1.04702 0.00238018 0)
(1.04636 0.0030831 0)
(1.04535 0.00391219 0)
(1.04392 0.0048643 0)
(1.04207 0.0058762 0)
(1.03988 0.00674803 0)
(1.0379 0.00705412 0)
(1.03656 0.00666385 0)
(1.03572 0.005864 0)
(1.03521 0.00484749 0)
(1.0349 0.00378584 0)
(1.03464 0.00278249 0)
(1.03171 0.00188521 0)
(0.98441 0.00110182 0)
(0.719756 0.000436695 0)
(0.163014 3.30488e-05 0)
(0.170598 4.79024e-05 0)
(0.908751 0.000967835 0)
(1.03585 0.00171685 0)
(1.04852 0.00248987 0)
(1.04849 0.00337356 0)
(1.04777 0.0043833 0)
(1.04667 0.00550806 0)
(1.04508 0.00669757 0)
(1.04295 0.007825 0)
(1.0403 0.00862075 0)
(1.03771 0.00865993 0)
(1.03578 0.00795649 0)
(1.03446 0.00685974 0)
(1.0336 0.0056128 0)
(1.03303 0.00437617 0)
(1.03262 0.00323741 0)
(1.02958 0.00223061 0)
(0.98216 0.00134089 0)
(0.717539 0.000546366 0)
(0.162151 4.2053e-05 0)
(0.171814 6.12391e-05 0)
(0.911553 0.00125178 0)
(1.03816 0.00225282 0)
(1.05065 0.00330726 0)
(1.05053 0.00450934 0)
(1.04968 0.00586454 0)
(1.04837 0.00733887 0)
(1.04649 0.0088392 0)
(1.0439 0.0101719 0)
(1.04061 0.0109819 0)
(1.03727 0.0108082 0)
(1.03468 0.00978413 0)
(1.03287 0.00834507 0)
(1.03164 0.00679109 0)
(1.03083 0.00529031 0)
(1.03027 0.00392722 0)
(1.02712 0.00272889 0)
(0.979479 0.00166304 0)
(0.714792 0.000686056 0)
(0.161061 5.30913e-05 0)
(0.173378 7.88027e-05 0)
(0.915198 0.00161651 0)
(1.04121 0.0029263 0)
(1.05349 0.00431625 0)
(1.05323 0.00589639 0)
(1.05217 0.00766499 0)
(1.05056 0.00956649 0)
(1.04822 0.0114626 0)
(1.045 0.0130853 0)
(1.04085 0.0139734 0)
(1.03658 0.0135976 0)
(1.03322 0.012205 0)
(1.03084 0.0103532 0)
(1.02921 0.00840091 0)
(1.02814 0.00654095 0)
(1.02741 0.00486348 0)
(1.02413 0.00339264 0)
(0.976188 0.0020798 0)
(0.711357 0.000861984 0)
(0.159691 6.66895e-05 0)
(0.1754 0.000102151 0)
(0.919904 0.00209205 0)
(1.04516 0.00379581 0)
(1.05717 0.0056053 0)
(1.05672 0.00765158 0)
(1.05538 0.00993059 0)
(1.05333 0.012364 0)
(1.05036 0.0147596 0)
(1.04629 0.0167586 0)
(1.04103 0.0177704 0)
(1.03561 0.0171705 0)
(1.03132 0.0153306 0)
(1.02826 0.0129629 0)
(1.02617 0.0105007 0)
(1.0248 0.00817271 0)
(1.02387 0.00608101 0)
(1.02043 0.0042493 0)
(0.97209 0.00261084 0)
(0.707044 0.00108319 0)
(0.15797 8.35275e-05 0)
(0.178035 0.000134101 0)
(0.925971 0.00272284 0)
(1.05022 0.00494379 0)
(1.0619 0.0072879 0)
(1.06119 0.00991439 0)
(1.05944 0.0128314 0)
(1.0568 0.0159339 0)
(1.053 0.0189571 0)
(1.04781 0.021426 0)
(1.04114 0.0225906 0)
(1.03428 0.0217103 0)
(1.02885 0.0193108 0)
(1.02498 0.0162924 0)
(1.02234 0.0131848 0)
(1.02061 0.010262 0)
(1.01945 0.00764049 0)
(1.0158 0.00534239 0)
(0.966953 0.00328209 0)
(0.701621 0.00136023 0)
(0.155813 0.000104487 0)
(0.181505 0.00018037 0)
(0.933823 0.00358274 0)
(1.05672 0.00649152 0)
(1.06797 0.00950534 0)
(1.0669 0.0128428 0)
(1.0646 0.0165647 0)
(1.06113 0.0205215 0)
(1.05621 0.0243345 0)
(1.04956 0.0273744 0)
(1.0411 0.0287012 0)
(1.03247 0.0274472 0)
(1.02565 0.0243373 0)
(1.02081 0.0205006 0)
(1.0175 0.0165839 0)
(1.01533 0.0129169 0)
(1.01391 0.00963152 0)
(1.01002 0.00674018 0)
(0.960491 0.00413535 0)
(0.694786 0.00171051 0)
(0.153112 0.000131504 0)
(0.186142 0.000250174 0)
(0.944099 0.00478872 0)
(1.0652 0.00859412 0)
(1.07592 0.0124024 0)
(1.0743 0.0166088 0)
(1.07117 0.0213776 0)
(1.06656 0.0264468 0)
(1.06014 0.0312503 0)
(1.05158 0.0349623 0)
(1.04086 0.0364283 0)
(1.03004 0.0346609 0)
(1.02154 0.0306475 0)
(1.01551 0.0257903 0)
(1.01139 0.0208718 0)
(1.00869 0.0162909 0)
(1.00694 0.012191 0)
(1.00275 0.00855764 0)
(0.952336 0.00524481 0)
(0.686137 0.00216443 0)
(0.149725 0.000168276 0)
(0.192453 0.000354606 0)
(0.957744 0.00650457 0)
(1.07651 0.0114477 0)
(1.08652 0.0161874 0)
(1.08404 0.0215286 0)
(1.07969 0.0277204 0)
(1.07347 0.0342299 0)
(1.06499 0.0402257 0)
(1.05394 0.0446651 0)
(1.04037 0.0461749 0)
(1.02687 0.0436896 0)
(1.01633 0.0385344 0)
(1.00885 0.0324192 0)
(1.00372 0.0262756 0)
(1.00035 0.0205889 0)
(0.998181 0.0155152 0)
(0.993603 0.0109827 0)
(0.942026 0.00675043 0)
(0.675137 0.00277686 0)
(0.145463 0.000220569 0)
(0.201256 0.00051268 0)
(0.976019 0.00904005 0)
(1.09165 0.0154735 0)
(1.10066 0.021429 0)
(1.09689 0.0283941 0)
(1.09081 0.0365003 0)
(1.08236 0.0447401 0)
(1.07108 0.0520166 0)
(1.05676 0.0570978 0)
(1.03961 0.0584163 0)
(1.02286 0.0549133 0)
(1.00987 0.0483321 0)
(1.00061 0.0406928 0)
(0.994205 0.0330677 0)
(0.989938 0.0260454 0)
(0.987158 0.0198182 0)
(0.982058 0.0142345 0)
(0.929054 0.00884478 0)
(0.661209 0.00362508 0)
(0.140101 0.000291257 0)
(0.213912 0.00078138 0)
(1.00048 0.0131441 0)
(1.11158 0.0215297 0)
(1.11916 0.0292224 0)
(1.11352 0.0384962 0)
(1.10499 0.0489502 0)
(1.09337 0.0590296 0)
(1.07835 0.0674703 0)
(1.05989 0.0728995 0)
(1.03841 0.0736156 0)
(1.01783 0.068685 0)
(1.00195 0.0603501 0)
(0.990546 0.0509116 0)
(0.982533 0.0415349 0)
(0.977049 0.0328947 0)
(0.97336 0.0252574 0)
(0.967524 0.0184201 0)
(0.912917 0.0116466 0)
(0.643918 0.00478029 0)
(0.1334 0.000374786 0)
(0.23274 0.00130505 0)
(1.03397 0.0202932 0)
(1.13819 0.0311318 0)
(1.14326 0.0414489 0)
(1.1344 0.0537062 0)
(1.12196 0.0666128 0)
(1.10585 0.0783022 0)
(1.086 0.0874729 0)
(1.0626 0.0926703 0)
(1.03618 0.0921624 0)
(1.01132 0.0853021 0)
(0.992206 0.0748826 0)
(0.978328 0.0634173 0)
(0.968357 0.0520792 0)
(0.96129 0.0415582 0)
(0.956328 0.0321943 0)
(0.949412 0.0237679 0)
(0.892792 0.0153081 0)
(0.622669 0.00634158 0)
(0.125064 0.000470013 0)
(0.26111 0.00252515 0)
(1.08229 0.0340052 0)
(1.17423 0.048147 0)
(1.17418 0.0621455 0)
(1.15961 0.0774629 0)
(1.14109 0.0921331 0)
(1.11885 0.104456 0)
(1.09303 0.113233 0)
(1.06395 0.117099 0)
(1.03219 0.114434 0)
(1.00284 0.105046 0)
(0.980308 0.0922696 0)
(0.963716 0.0786869 0)
(0.951456 0.0653793 0)
(0.942393 0.0529654 0)
(0.935656 0.0417912 0)
(0.927014 0.0316437 0)
(0.867111 0.0210084 0)
(0.59588 0.00858873 0)
(0.115195 0.000553049 0)
(0.302105 0.0102732 -1.64678e-20)
(1.14613 0.0622686 -1.26475e-20)
(1.21953 0.0797698 3.59834e-21)
(1.20966 0.0970415 0)
(1.18696 0.113505 2.03215e-35)
(1.16083 0.127925 -1.27392e-22)
(1.13138 0.139122 -7.88855e-22)
(1.09878 0.146048 0)
(1.06342 0.147494 3.9124e-35)
(1.02582 0.141968 -3.13979e-21)
(0.991534 0.129742 0)
(0.965091 0.114627 -4.69619e-21)
(0.945197 0.0991444 -1.44802e-20)
(0.929917 0.0842365 -7.048e-21)
(0.917934 0.0705046 -2.24048e-21)
(0.908209 0.0582847 -1.3639e-21)
(0.896432 0.0473407 0)
(0.833253 0.0352776 9.91923e-22)
(0.560727 0.0192597 1.17703e-21)
(0.10524 0.00323303 2.09579e-20)
(0.324409 0.0284733 -2.8306e-20)
(1.19798 0.110494 5.17226e-22)
(1.26068 0.130562 -1.62998e-21)
(1.24178 0.146186 0)
(1.21136 0.160682 3.20415e-21)
(1.17789 0.173035 2.31816e-21)
(1.14149 0.182102 -2.79993e-22)
(1.10225 0.18683 -4.40415e-21)
(1.06038 0.185948 0)
(1.01625 0.177932 1.31874e-20)
(0.975938 0.163449 1.49785e-20)
(0.944337 0.146732 4.89119e-21)
(0.919865 0.130281 1.96991e-20)
(0.900293 0.114853 2.94114e-20)
(0.884131 0.100968 0)
(0.870161 0.0890776 4.43575e-20)
(0.853568 0.0788222 6.54483e-20)
(0.790622 0.0666334 7.34473e-20)
(0.536263 0.0441615 -8.62147e-20)
(0.103782 0.00895556 -1.56415e-21)
(0.313888 0.0458207 0)
(1.228 0.172726 -8.18673e-21)
(1.29134 0.193614 0)
(1.26644 0.205265 1.36535e-20)
(1.22977 0.215766 0)
(1.19012 0.224335 8.50819e-21)
(1.1477 0.229958 -3.19554e-22)
(1.10257 0.231416 -5.19377e-21)
(1.05492 0.227432 -1.53329e-21)
(1.00496 0.216558 6.20127e-21)
(0.959313 0.199917 3.51297e-20)
(0.923376 0.182065 -2.42938e-22)
(0.895342 0.16537 -1.4837e-20)
(0.872719 0.150448 -2.91352e-20)
(0.853967 0.137613 3.55956e-20)
(0.837904 0.127096 -6.4107e-20)
(0.820559 0.11864 -8.84805e-21)
(0.764209 0.106587 0)
(0.532762 0.075106 4.50205e-22)
(0.110263 0.0160025 0)
(0.300446 0.0605755 -2.02345e-19)
(1.24079 0.237801 8.31089e-20)
(1.30987 0.260966 4.42769e-20)
(1.28173 0.268862 -8.73611e-21)
(1.24107 0.274864 1.34549e-20)
(1.19707 0.279117 -2.0109e-20)
(1.15003 0.280657 -1.76572e-21)
(1.10012 0.278322 0)
(1.0476 0.270851 -2.19809e-20)
(0.992803 0.256835 0)
(0.94296 0.237883 -1.76141e-20)
(0.903876 0.218796 -2.56273e-20)
(0.873562 0.20173 -1.65983e-20)
(0.849395 0.187022 -2.1669e-20)
(0.829676 0.17475 0)
(0.813103 0.165004 0)
(0.796269 0.157403 -5.9246e-20)
(0.745039 0.144859 1.18846e-20)
(0.526811 0.103279 -6.98702e-21)
(0.111214 0.0221069 -8.18228e-21)
(0.288579 0.0736249 1.46894e-19)
(1.24208 0.30197 0)
(1.31864 0.328609 -1.22191e-19)
(1.28876 0.333078 -3.22622e-20)
(1.24549 0.334797 -2.57574e-20)
(1.19849 0.334819 0)
(1.14816 0.332256 -5.59197e-21)
(1.09472 0.326045 3.14143e-21)
(1.03845 0.314948 8.71779e-21)
(0.979692 0.297626 3.12552e-20)
(0.926338 0.276136 0)
(0.884801 0.255497 -5.55809e-20)
(0.852961 0.237631 -3.60416e-20)
(0.827924 0.22265 -2.18173e-20)
(0.807835 0.2104 1.44814e-19)
(0.791315 0.20078 1.78455e-20)
(0.775142 0.193179 8.55828e-20)
(0.727034 0.179316 -4.16587e-19)
(0.517259 0.12808 2.49699e-19)
(0.110153 0.0275252 -3.01918e-19)
(0.279247 0.0855393 1.53079e-19)
(1.23618 0.363304 -2.83912e-20)
(1.32006 0.394511 2.11749e-20)
(1.2894 0.395991 5.83642e-20)
(1.24448 0.393748 3.69186e-20)
(1.19542 0.389767 1.5706e-21)
(1.14268 0.383313 5.57207e-21)
(1.08649 0.373395 3.52718e-22)
(1.02719 0.358774 -1.89466e-20)
(0.965188 0.338116 0)
(0.909062 0.313896 -2.35309e-20)
(0.865694 0.291378 -1.4994e-21)
(0.832824 0.272315 -4.04854e-20)
(0.807348 0.256574 0)
(0.787234 0.243807 -3.16194e-20)
(0.770977 0.233748 -7.71718e-20)
(0.755389 0.225649 2.1472e-19)
(0.709288 0.210119 -2.15579e-19)
(0.50619 0.150237 3.07933e-19)
(0.108022 0.0322814 -3.21194e-19)
(0.272194 0.0966396 -4.84963e-22)
(1.22616 0.421121 3.4225e-20)
(1.31602 0.457486 1.00334e-19)
(1.28508 0.456438 -3.5276e-20)
(1.23912 0.450646 2.0961e-20)
(1.1887 0.443042 0)
(1.13427 0.433028 1.18515e-20)
(1.07607 0.419654 1.71185e-21)
(1.01444 0.401718 -7.76018e-21)
(0.949838 0.37782 0)
(0.89135 0.350768 -2.24451e-20)
(0.84643 0.326116 -3.26746e-20)
(0.812774 0.305467 4.43581e-20)
(0.78703 0.288548 -2.87021e-20)
(0.766988 0.274882 -1.39774e-19)
(0.751016 0.264054 8.63503e-20)
(0.735923 0.2552 2.76256e-20)
(0.691406 0.237925 0)
(0.494184 0.170028 -2.99744e-19)
(0.105254 0.0364034 -1.10333e-20)
(0.266872 0.107279 2.46485e-20)
(1.21383 0.475235 -3.90313e-20)
(1.30794 0.51688 -5.45668e-20)
(1.27705 0.513704 -1.08915e-19)
(1.23057 0.504872 1.0029e-19)
(1.17936 0.49411 -5.68146e-20)
(1.12383 0.48091 -2.55191e-20)
(1.06411 0.464381 3.96382e-21)
(1.00058 0.443388 9.90832e-21)
(0.933714 0.41644 -7.47503e-20)
(0.873119 0.38653 -2.82603e-20)
(0.826788 0.359509 0)
(0.792433 0.336968 4.87186e-20)
(0.766502 0.318538 6.07673e-20)
(0.746589 0.303648 7.52203e-20)
(0.730949 0.2918 -9.47016e-20)
(0.716345 0.282005 -2.864e-20)
(0.6732 0.26288 3.4106e-20)
(0.481286 0.187523 0)
(0.101993 0.0398917 -2.42043e-20)
(0.262766 0.117541 -2.82885e-19)
(1.2004 0.525753 1.78147e-19)
(1.29704 0.572484 5.96318e-20)
(1.26635 0.567526 -8.25438e-20)
(1.21966 0.556089 5.92406e-20)
(1.16801 0.542587 -3.71457e-21)
(1.11175 0.526595 2.61131e-20)
(1.05096 0.507274 9.95976e-22)
(0.985901 0.483512 -1.3699e-20)
(0.917059 0.45378 7.73534e-23)
(0.854451 0.421088 -8.29946e-20)
(0.806705 0.391555 8.47009e-20)
(0.771617 0.36685 -5.51373e-20)
(0.745481 0.34659 6.92149e-20)
(0.725712 0.330201 0)
(0.710431 0.317113 -5.18313e-20)
(0.696341 0.306139 -1.32921e-21)
(0.65445 0.285146 -1.50299e-19)
(0.46754 0.202873 -2.22593e-20)
(0.098256 0.042746 0)
(0.259477 0.127342 0)
(1.18649 0.572896 1.91409e-19)
(1.28423 0.624343 1.37979e-19)
(1.25378 0.617889 9.26386e-20)
(1.20713 0.60422 5.79385e-20)
(1.15529 0.588341 0)
(1.0986 0.569889 2.13485e-20)
(1.03707 0.548142 -1.35995e-21)
(0.970809 0.521989 2.79927e-20)
(0.900156 0.48978 -8.61313e-21)
(0.835499 0.45449 -6.11755e-20)
(0.786165 0.422372 4.19977e-20)
(0.750195 0.395251 -2.13362e-21)
(0.723758 0.372857 7.31729e-20)
(0.70412 0.354677 4.83917e-20)
(0.689217 0.340102 -1.13443e-19)
(0.675705 0.327787 1.38124e-19)
(0.635009 0.304546 4.16003e-20)
(0.452743 0.215963 1.72559e-19)
(0.0939117 0.0447738 -4.61325e-19)
(0.256794 0.136829 -7.14167e-20)
(1.1725 0.616869 1.09782e-19)
(1.27018 0.672603 -8.48322e-20)
(1.23999 0.664868 -1.06583e-19)
(1.19354 0.649265 0)
(1.14172 0.631304 4.74332e-20)
(1.08482 0.610728 -6.40683e-20)
(1.02279 0.586879 -8.41859e-21)
(0.955616 0.558747 0)
(0.883288 0.52444 -1.37264e-19)
(0.816421 0.486824 1.67638e-19)
(0.765229 0.452123 0)
(0.728078 0.42236 6.63083e-20)
(0.701168 0.397516 -2.24222e-21)
(0.681573 0.377239 -1.54447e-19)
(0.667045 0.360894 6.0613e-20)
(0.654116 0.347024 0)
(0.614531 0.321431 2.26802e-19)
(0.436788 0.22679 0)
(0.0890482 0.0460819 -2.21902e-19)
(0.254503 0.145974 7.90626e-20)
(1.15871 0.657798 1.24921e-19)
(1.2554 0.717397 -8.88867e-20)
(1.22546 0.708575 0)
(1.17925 0.691279 7.82028e-20)
(1.12764 0.671484 0)
(1.07077 0.649063 8.05216e-20)
(1.00846 0.62346 1.17212e-20)
(0.940559 0.593731 7.54955e-22)
(0.866728 0.557845 -6.75019e-20)
(0.797465 0.518228 1.59083e-20)
(0.743971 0.481051 0)
(0.705245 0.448471 -1.42159e-19)
(0.677582 0.420828 2.35377e-21)
(0.657851 0.398089 0)
(0.643658 0.37968 2.56393e-21)
(0.631333 0.363977 2.0725e-19)
(0.592773 0.335738 -2.0118e-19)
(0.419427 0.23526 5.94868e-20)
(0.0834913 0.0465637 0)
(0.252298 0.154635 0)
(1.14506 0.695957 1.3899e-19)
(1.24028 0.759038 1.03332e-19)
(1.21052 0.749189 -1.9799e-21)
(1.16463 0.730363 4.79602e-20)
(1.11333 0.708937 1.12463e-19)
(1.05669 0.684919 -2.69411e-20)
(0.994354 0.657877 8.00466e-21)
(0.925902 0.626939 1.07874e-20)
(0.850675 0.590012 -1.03172e-19)
(0.77885 0.54887 -3.57249e-21)
(0.722557 0.509421 -5.70055e-20)
(0.681731 0.473932 2.35534e-19)
(0.652881 0.443177 -2.90845e-21)
(0.632831 0.417475 -1.24801e-19)
(0.618859 0.396516 -2.28299e-19)
(0.607047 0.378738 0)
(0.569456 0.347532 0)
(0.40044 0.24125 6.66079e-20)
(0.0771678 0.0461224 -3.88372e-20)
(0.250502 0.162936 9.70887e-20)
(1.1317 0.731643 -3.01956e-19)
(1.22501 0.797668 -1.10339e-19)
(1.19534 0.786878 0)
(1.14991 0.766633 -1.39507e-21)
(1.09902 0.743752 1.32927e-19)
(1.04276 0.718349 -8.59318e-20)
(0.980635 0.690131 -5.42371e-20)
(0.911883 0.658381 4.24763e-21)
(0.835312 0.620946 -7.63099e-20)
(0.760769 0.578948 -1.4227e-19)
(0.701184 0.53756 1.52605e-19)
(0.657617 0.499174 0)
(0.626982 0.464987 -5.67335e-20)
(0.606213 0.435811 -1.38588e-19)
(0.592304 0.411744 -1.67784e-19)
(0.580882 0.391278 -2.04716e-19)
(0.544325 0.356725 6.17447e-20)
(0.379372 0.244468 -3.6123e-20)
(0.0699724 0.0445945 7.1896e-22)
(0.248627 0.170785 0)
(1.11878 0.764952 0)
(1.20976 0.833428 2.12401e-21)
(1.18014 0.821786 0)
(1.13522 0.800236 -1.78446e-19)
(1.08486 0.776033 -1.15952e-19)
(1.02914 0.749414 0)
(0.967417 0.72024 -1.06923e-20)
(0.898657 0.688037 -9.20999e-21)
(0.820844 0.650693 -1.74473e-19)
(0.743376 0.608576 0)
(0.68009 0.565781 -9.87111e-20)
(0.632977 0.52469 -3.43638e-21)
(0.599674 0.48681 -2.8231e-21)
(0.577309 0.4533 1.50004e-19)
(0.563374 0.425871 -2.05225e-22)
(0.552785 0.401835 -4.50632e-19)
(0.517236 0.363247 1.36626e-19)
(0.355922 0.244465 4.07852e-20)
(0.0618154 0.0417887 0)
(0.246705 0.178155 -3.53317e-19)
(1.10608 0.796304 -1.83336e-19)
(1.19463 0.866638 -2.72873e-19)
(1.16509 0.85409 3.85958e-19)
(1.1207 0.831313 -3.32445e-19)
(1.07096 0.805891 0)
(1.01593 0.778195 -7.10183e-20)
(0.954814 0.748233 2.13586e-20)
(0.886296 0.715879 3.69399e-21)
(0.8075 0.67925 1.43944e-20)
(0.72702 0.637722 1.77519e-19)
(0.659589 0.594354 -3.35784e-20)
(0.608026 0.550814 -1.4869e-19)
(0.570623 0.508965 -6.94502e-20)
(0.545998 0.470903 8.47235e-20)
(0.531687 0.439035 -1.12821e-22)
(0.52201 0.411034 1.25902e-19)
(0.486615 0.367243 -2.99687e-19)
(0.328888 0.240959 3.60625e-19)
(0.0526342 0.0376643 5.19124e-20)
(0.244689 0.185097 1.2902e-19)
(1.09372 0.82581 -9.94735e-20)
(1.17959 0.8974 5.19958e-21)
(1.15028 0.883949 2.16211e-19)
(1.10643 0.860025 7.67011e-20)
(1.0574 0.833451 2.30634e-19)
(1.00318 0.804774 -3.00279e-20)
(0.942889 0.774146 9.96627e-20)
(0.874905 0.741902 3.90877e-20)
(0.795457 0.706501 -8.84576e-20)
(0.71212 0.666445 0)
(0.639965 0.623408 -1.54611e-19)
(0.583055 0.577595 2.18733e-19)
(0.540244 0.53186 0)
(0.513146 0.489456 -1.82764e-19)
(0.497923 0.451078 1.15006e-19)
(0.487914 0.417736 -1.3785e-19)
(0.452315 0.367582 -1.67888e-19)
(0.29767 0.232942 -2.97846e-19)
(0.0422538 0.0319933 -2.32746e-19)
(0.242876 0.191726 -1.40946e-19)
(1.08167 0.853245 1.06336e-19)
(1.16483 0.925868 2.51117e-19)
(1.13576 0.911512 2.95877e-19)
(1.09249 0.88651 -1.61047e-19)
(1.04421 0.858849 1.57636e-19)
(0.990937 0.829242 -9.45486e-20)
(0.931662 0.798048 1.19028e-19)
(0.864537 0.766116 3.18352e-20)
(0.784882 0.732379 7.69878e-20)
(0.698824 0.694819 3.76066e-19)
(0.621245 0.652875 0)
(0.558545 0.605495 0)
(0.510248 0.557087 -8.08689e-20)
(0.47861 0.508883 0)
(0.460536 0.46481 2.52963e-19)
(0.449192 0.423983 3.05926e-19)
(0.413372 0.363973 0)
(0.261561 0.219471 0)
(0.0307507 0.0246826 2.5856e-19)
(0.240936 0.197842 1.54541e-19)
(1.06982 0.878815 1.25427e-19)
(1.15043 0.952206 1.79901e-19)
(1.12156 0.936965 -2.61931e-19)
(1.07892 0.910919 -1.78325e-19)
(1.03143 0.882211 -2.06994e-19)
(0.9792 0.851712 1.39927e-19)
(0.921147 0.82 1.55288e-21)
(0.855212 0.788495 -4.71006e-21)
(0.775857 0.756862 -7.04332e-21)
(0.687157 0.722769 1.90342e-19)
(0.603928 0.68273 0)
(0.535055 0.634802 2.25202e-19)
(0.481555 0.584557 1.717e-19)
(0.442329 0.531547 4.45732e-19)
(0.418692 0.477517 1.37488e-19)
(0.404501 0.427129 -1.72919e-19)
(0.369155 0.354461 -1.02841e-19)
(0.222273 0.199005 0)
(0.0201377 0.0164775 2.86581e-19)
(0.239347 0.2039 -3.37637e-19)
(1.05824 0.902668 0)
(1.13638 0.976554 1.99097e-19)
(1.10774 0.960447 -2.13384e-19)
(1.06574 0.933396 1.99786e-19)
(1.01907 0.903672 2.99165e-19)
(0.967975 0.872282 -3.20599e-19)
(0.911313 0.840064 4.76738e-21)
(0.846926 0.809056 0)
(0.768337 0.779906 -5.67758e-20)
(0.677285 0.75017 -3.90405e-19)
(0.588279 0.713138 2.10914e-20)
(0.51292 0.666221 3.09923e-19)
(0.452029 0.614508 0)
(0.403424 0.557455 3.01994e-19)
(0.369383 0.49721 0)
(0.348807 0.429136 0)
(0.314487 0.331675 -1.17191e-19)
(0.186655 0.162924 0)
(0.0281208 0.0147317 7.8426e-20)
(0.23763 0.209382 -3.66795e-19)
(1.04697 0.925018 0)
(1.12266 0.999118 3.20988e-19)
(1.09426 0.982201 0)
(1.05291 0.95421 -1.0749e-19)
(1.00704 0.923522 0)
(0.957136 0.891259 -2.31844e-20)
(0.90201 0.858581 -2.05119e-20)
(0.839504 0.82811 -5.85238e-21)
(0.762138 0.801818 -4.42709e-20)
(0.669385 0.777178 9.46576e-21)
(0.574857 0.743995 1.78949e-19)
(0.491549 0.699797 3.01462e-19)
(0.420654 0.648784 4.3669e-20)
(0.361606 0.589301 2.3653e-19)
(0.314761 0.52117 0)
(0.275153 0.437542 3.82351e-19)
(0.231153 0.291189 -2.32435e-19)
(0.1059 0.128005 2.7151e-19)
(-0.0581925 0.367725 -3.22884e-19)
(0.236076 0.214748 2.9773e-19)
(1.03581 0.946012 4.68087e-19)
(1.10916 1.02019 0)
(1.08099 1.0026 3.57861e-21)
(1.0402 0.973828 2.89995e-19)
(0.995047 0.942284 -5.71668e-19)
(0.946294 0.909184 -1.3938e-19)
(0.892811 0.876116 0)
(0.83251 0.846289 -6.6266e-20)
(0.757119 0.82348 9.91835e-22)
(0.663677 0.805357 0)
(0.563589 0.77813 0)
(0.470759 0.738244 2.66652e-19)
(0.388341 0.686306 -1.37389e-19)
(0.314296 0.631559 -2.35078e-19)
(0.252238 0.567537 0)
(0.170673 0.46198 1.94493e-19)
(0.0667808 0.518993 -2.35371e-19)
(0.0580833 1.67597 -1.25876e-19)
(0.096891 2.70538 -1.59273e-19)
(0.234605 0.219317 -2.1637e-19)
(1.0249 0.965773 -5.86615e-19)
(1.09589 1.03976 1.82914e-19)
(1.06794 1.02158 1.77584e-19)
(1.02767 0.992122 0)
(0.983129 0.959791 -4.07158e-19)
(0.935533 0.92584 -2.30593e-19)
(0.883688 0.892223 1.30975e-20)
(0.825826 0.862987 -9.76098e-21)
(0.753471 0.844115 1.1443e-20)
(0.660385 0.833906 1.69605e-19)
(0.553952 0.816054 1.89552e-19)
(0.451594 0.780758 2.64407e-19)
(0.356112 0.729634 -3.1495e-19)
(0.270433 0.686878 -3.45844e-19)
(0.195267 0.62984 0)
(0.106241 0.860159 0)
(0.16056 2.38018 1.00423e-19)
(0.168683 3.13288 0)
(0.167101 3.35392 2.33332e-19)
(0.235726 0.223638 0)
(1.0142 0.984297 0)
(1.08276 1.05769 0)
(1.05488 1.03899 4.8904e-20)
(1.01509 1.00899 2.57457e-19)
(0.97111 0.976019 -3.08113e-19)
(0.924775 0.941155 -1.64461e-19)
(0.874592 0.906557 1.46527e-20)
(0.819524 0.877678 -1.25615e-19)
(0.751655 0.86334 -1.30771e-20)
(0.659206 0.863278 2.98495e-19)
(0.545895 0.855153 -2.29872e-20)
(0.433433 0.827904 3.00842e-20)
(0.327333 0.774721 4.49987e-20)
(0.24267 0.740949 1.12832e-21)
(0.166859 0.959538 1.87044e-21)
(0.210563 2.48136 -4.71812e-19)
(0.242914 3.24724 -1.79563e-19)
(0.221411 3.4141 8.29819e-20)
(0.198991 3.44441 -8.35228e-20)
(0.144879 0.176479 1.21942e-19)
(0.996173 1.00436 0)
(1.07017 1.07428 -3.54235e-19)
(1.04251 1.05554 -4.55742e-19)
(1.00317 1.0252 5.29534e-19)
(0.959709 0.991543 3.26069e-19)
(0.913895 0.955277 1.92729e-19)
(0.865503 0.91945 -2.37786e-19)
(0.813477 0.891557 1.2403e-19)
(0.751703 0.881423 0)
(0.661609 0.892115 1.20032e-19)
(0.542281 0.896206 -1.44129e-19)
(0.419045 0.877068 0)
(0.303838 0.82326 4.01314e-20)
(0.23617 0.904008 9.30444e-20)
(0.209091 2.07385 -1.12648e-19)
(0.31679 3.27366 1.23916e-19)
(0.29651 3.43641 5.72142e-20)
(0.250473 3.4701 6.56463e-20)
(0.218758 3.48511 7.23506e-20)
(0.28068 0.262522 -2.22833e-19)
(0.973848 1.00535 0)
(1.04968 1.09416 3.56913e-19)
(1.02375 1.07863 4.64206e-19)
(0.984088 1.04759 -5.39262e-19)
(0.940904 1.01267 -3.41264e-19)
(0.896586 0.975358 -2.88868e-19)
(0.85154 0.938114 -1.81041e-20)
(0.806668 0.909205 -1.68344e-19)
(0.754447 0.905487 -8.82444e-20)
(0.668516 0.937778 2.88662e-21)
(0.53816 0.972416 1.24077e-19)
(0.389396 0.966933 2.69664e-20)
(0.286929 1.04903 -3.63854e-20)
(0.321733 1.99764 -7.95265e-20)
(0.410327 3.25033 4.70316e-20)
(0.402901 3.47733 -3.3817e-20)
(0.357086 3.51547 -1.79951e-20)
(0.307149 3.55227 2.69515e-20)
(0.233902 3.54361 1.48273e-21)
(0.267404 0.257878 0)
(0.968497 1.02286 9.36389e-20)
(1.03826 1.11168 -7.03507e-20)
(1.0114 1.09531 -5.12821e-20)
(0.971567 1.0638 -3.51322e-19)
(0.928749 1.02798 3.32094e-19)
(0.885046 0.989091 1.9319e-19)
(0.842156 0.950187 -1.88358e-20)
(0.802681 0.921154 2.05794e-19)
(0.761715 0.921905 -2.06432e-20)
(0.686466 0.967801 -1.30059e-19)
(0.545338 1.0273 1.87725e-20)
(0.377604 1.04143 -2.48314e-20)
(0.328228 1.35617 -3.00786e-20)
(0.450987 2.82641 1.99524e-20)
(0.51148 3.44416 -5.10828e-22)
(0.454403 3.55382 -9.38337e-20)
(0.410712 3.59263 -9.67416e-20)
(0.33371 3.63462 1.19975e-19)
(0.255013 3.62067 5.47414e-20)
(0.249035 0.253834 2.29111e-19)
(0.96076 1.04359 6.24836e-19)
(1.02607 1.13053 -1.99126e-19)
(0.997918 1.11299 -1.93956e-19)
(0.957948 1.08068 0)
(0.915395 1.04361 4.78081e-19)
(0.872484 1.00288 2.91272e-19)
(0.832227 0.96192 -1.96429e-20)
(0.798692 0.931095 2.25322e-20)
(0.769777 0.934403 1.89828e-19)
(0.709282 1.00156 -1.94355e-20)
(0.566722 1.0888 -1.33341e-19)
(0.379886 1.14728 -1.85228e-19)
(0.410056 1.81844 1.72615e-19)
(0.576561 3.2505 5.97694e-20)
(0.592567 3.53324 0)
(0.527469 3.6075 0)
(0.4647 3.68895 1.14099e-19)
(0.37817 3.75618 0)
(0.272626 3.72751 2.11091e-19)
(0.235896 0.253163 -3.31741e-19)
(0.950995 1.06578 -5.15843e-19)
(1.01206 1.15023 0)
(0.9827 1.13124 3.16963e-21)
(0.942635 1.09783 -3.35586e-19)
(0.900235 1.05917 7.03339e-19)
(0.858217 1.01622 1.94068e-19)
(0.820531 0.97204 -2.22168e-20)
(0.793553 0.937266 2.20514e-19)
(0.779881 0.941633 -1.54186e-20)
(0.73863 1.02547 0)
(0.593016 1.1591 0)
(0.40073 1.29332 -1.65838e-19)
(0.525663 2.33031 4.36847e-20)
(0.696666 3.42151 -1.74941e-20)
(0.673587 3.58147 0)
(0.623715 3.68012 2.5678e-19)
(0.544185 3.7833 -4.00181e-19)