/*--------------------------------*- C++ -*----------------------------------*\
  =========                 |
  \\      /  F ield         | OpenFOAM: The Open Source CFD Toolbox
   \\    /   O peration     | Website:  https://openfoam.org
    \\  /    A nd           | Version:  9
     \\/     M anipulation  |
\*---------------------------------------------------------------------------*/
FoamFile
{
    format      ascii;
    class       volScalarField;
    location    "3";
    object      p;
}
// * * * * * * * * * * * * * * * * * * * * * * * * * * * * * * * * * * * * * //

dimensions      [0 2 -2 0 0 0 0];

internalField   nonuniform List<scalar> 
8800
(
0.844399
0.797326
0.760702
0.733584
0.714441
0.700917
0.691189
0.68446
0.679982
0.677911
0.678834
0.682388
0.688121
0.696332
0.707886
0.72398
0.746832
0.778799
0.819265
0.878201
0.675333
0.68425
0.693738
0.697955
0.69768
0.694026
0.688896
0.683815
0.679567
0.67681
0.676237
0.678325
0.682115
0.687005
0.69236
0.697053
0.699266
0.697374
0.69075
0.679374
0.665064
0.670556
0.674776
0.677356
0.67846
0.67814
0.676592
0.67444
0.67239
0.671226
0.67186
0.673856
0.676286
0.678399
0.67948
0.679138
0.677339
0.673939
0.66922
0.666184
0.667565
0.66855
0.670002
0.671352
0.672261
0.672669
0.672376
0.671376
0.670334
0.669787
0.670287
0.671465
0.67275
0.673603
0.673634
0.673046
0.671943
0.670512
0.669253
0.668836
0.662527
0.662693
0.662965
0.663271
0.663547
0.663709
0.66363
0.663339
0.662884
0.662626
0.663017
0.663834
0.664524
0.664896
0.664974
0.664822
0.664568
0.664293
0.664081
0.663999
0.657344
0.657477
0.657671
0.657905
0.658137
0.658312
0.658384
0.658335
0.65823
0.658265
0.658628
0.659158
0.659592
0.65982
0.659849
0.659739
0.659558
0.65937
0.659224
0.659157
0.65161
0.65167
0.651758
0.65187
0.652002
0.65214
0.652266
0.652371
0.652485
0.652703
0.653096
0.653526
0.653846
0.654025
0.654086
0.654073
0.654025
0.653966
0.653915
0.653886
0.645803
0.645841
0.645901
0.645984
0.646092
0.646225
0.646387
0.646582
0.646836
0.6472
0.647662
0.648086
0.648395
0.648585
0.648681
0.648715
0.648713
0.648693
0.648669
0.64865
0.639896
0.639917
0.639962
0.640033
0.640136
0.640282
0.640484
0.640759
0.64113
0.641632
0.642201
0.642686
0.643032
0.643258
0.643391
0.643461
0.643491
0.643497
0.643491
0.64348
0.63387
0.633888
0.633927
0.633997
0.63411
0.634281
0.634532
0.634889
0.635382
0.63604
0.636754
0.63734
0.637765
0.638049
0.638227
0.638331
0.638386
0.63841
0.638415
0.638407
0.627696
0.627709
0.627755
0.627835
0.627968
0.628177
0.628492
0.628949
0.629586
0.630431
0.631334
0.632071
0.632603
0.632962
0.633193
0.633334
0.633415
0.633455
0.633469
0.633463
0.62135
0.621363
0.621414
0.62151
0.621673
0.621933
0.622331
0.622913
0.623729
0.62481
0.62596
0.626894
0.627564
0.628021
0.628318
0.628503
0.62861
0.628667
0.628689
0.628684
0.614775
0.614788
0.61485
0.614969
0.615174
0.615503
0.616009
0.616752
0.617795
0.619176
0.620639
0.621822
0.622673
0.623256
0.623637
0.623875
0.624015
0.624089
0.624121
0.624116
0.607908
0.607923
0.608001
0.608152
0.608412
0.608833
0.609479
0.610429
0.611763
0.613525
0.615387
0.616891
0.617972
0.618711
0.619195
0.619499
0.619679
0.619776
0.619817
0.619812
0.600665
0.600685
0.600784
0.600977
0.601311
0.60185
0.602679
0.603898
0.605605
0.607856
0.610227
0.612137
0.613507
0.614445
0.615059
0.615444
0.615673
0.615796
0.61585
0.615843
0.592938
0.592963
0.593091
0.593341
0.593772
0.594467
0.595535
0.597101
0.59929
0.602165
0.605183
0.607606
0.609342
0.610528
0.611306
0.611794
0.612083
0.612239
0.612306
0.612298
0.584579
0.584613
0.58478
0.585105
0.585664
0.586566
0.587947
0.589967
0.592776
0.59645
0.600288
0.603358
0.605553
0.607051
0.608032
0.608647
0.609012
0.609209
0.609294
0.609284
0.575396
0.575441
0.575661
0.576088
0.57682
0.577996
0.57979
0.582403
0.586017
0.590713
0.595587
0.59947
0.602239
0.604126
0.605361
0.606136
0.606594
0.606843
0.606949
0.606935
0.565124
0.565187
0.56548
0.566046
0.567012
0.568559
0.570905
0.574298
0.578957
0.584957
0.591137
0.596034
0.599519
0.601892
0.603445
0.604417
0.604993
0.605305
0.605438
0.60542
0.553398
0.553488
0.553885
0.554646
0.555939
0.557992
0.561085
0.565517
0.571535
0.579196
0.587007
0.593162
0.597533
0.60051
0.60246
0.603682
0.604405
0.604797
0.604963
0.60494
0.539698
0.539831
0.540384
0.541428
0.543186
0.545954
0.550076
0.555903
0.563694
0.573457
0.583286
0.590986
0.59645
0.600177
0.602624
0.604161
0.605074
0.605567
0.605777
0.605748
0.52326
0.523467
0.52426
0.525734
0.528187
0.531994
0.537567
0.54529
0.555394
0.56779
0.580079
0.589647
0.596448
0.601111
0.60419
0.606136
0.607296
0.607925
0.608193
0.608156
0.502909
0.503247
0.504435
0.506607
0.510157
0.515541
0.523216
0.53354
0.546641
0.56228
0.577498
0.589283
0.5977
0.603534
0.607435
0.609931
0.611433
0.612255
0.612607
0.612562
0.476737
0.477317
0.47922
0.482644
0.488064
0.495961
0.506743
0.520628
0.537545
0.557066
0.575659
0.589993
0.600329
0.607628
0.61263
0.615914
0.617937
0.619061
0.619544
0.619496
0.441266
0.44235
0.445879
0.451902
0.460766
0.472783
0.48814
0.506786
0.528388
0.552361
0.57467
0.591812
0.604348
0.613448
0.619937
0.624415
0.627326
0.629018
0.62976
0.629714
0.388784
0.392096
0.400411
0.412299
0.427526
0.446079
0.467858
0.492531
0.519575
0.548363
0.57452
0.594576
0.609496
0.620704
0.629126
0.63539
0.639907
0.642951
0.644514
0.644543
0.304529
0.322482
0.342642
0.365232
0.390057
0.417342
0.446919
0.478363
0.511181
0.544885
0.574909
0.597988
0.615559
0.629306
0.640297
0.649239
0.656628
0.66268
0.66771
0.669978
0.2164
0.253209
0.285712
0.319357
0.354161
0.39019
0.42731
0.465227
0.503547
0.541971
0.575836
0.602028
0.622379
0.638823
0.652498
0.664159
0.674277
0.68314
0.692799
0.696767
0.159286
0.198332
0.238557
0.280298
0.322999
0.366443
0.410239
0.453896
0.496903
0.538965
0.575337
0.60327
0.625022
0.642656
0.657286
0.669603
0.68008
0.689037
0.697692
0.700937
0.119064
0.160341
0.204188
0.250326
0.298176
0.347019
0.396007
0.444254
0.490905
0.535449
0.57304
0.601438
0.623362
0.641024
0.655579
0.667727
0.677967
0.686692
0.69492
0.698116
0.0894083
0.131813
0.1782
0.227621
0.279227
0.332112
0.385119
0.436914
0.48617
0.531981
0.56946
0.597135
0.618296
0.635299
0.649317
0.661031
0.67091
0.679281
0.687016
0.690009
0.0657255
0.109394
0.157807
0.209821
0.264512
0.32074
0.377025
0.431594
0.482599
0.528607
0.564771
0.590693
0.610332
0.62617
0.639331
0.650419
0.659833
0.66786
0.675154
0.678009
0.046339
0.0911643
0.14144
0.195742
0.253082
0.312187
0.371275
0.428125
0.480261
0.525559
0.559281
0.58246
0.599862
0.61408
0.62612
0.636431
0.645317
0.652982
0.65988
0.662668
0.0297298
0.0757164
0.12786
0.184271
0.244087
0.305843
0.367495
0.426353
0.479209
0.523067
0.553276
0.572683
0.587127
0.599272
0.609938
0.619364
0.627655
0.634956
0.641505
0.644263
0.0151118
0.062382
0.116098
0.174624
0.236828
0.301159
0.365315
0.426109
0.479518
0.521389
0.547031
0.561556
0.572233
0.581838
0.5909
0.599333
0.607008
0.613932
0.62014
0.622855
0.00144241
0.0501101
0.105563
0.16617
0.230753
0.297689
0.364408
0.427234
0.481231
0.520799
0.540828
0.549207
0.555179
0.56175
0.569008
0.576409
0.58348
0.590057
0.595981
0.598711
-0.0115046
0.0384585
0.0957006
0.158401
0.225407
0.295015
0.364441
0.429544
0.484391
0.521565
0.534996
0.53572
0.535845
0.538837
0.544194
0.550634
0.557254
0.563587
0.5693
0.572098
-0.0243448
0.0270506
0.0861015
0.150924
0.220418
0.292781
0.365113
0.432816
0.488964
0.523973
0.529907
0.521152
0.513935
0.512738
0.516247
0.522057
0.528561
0.534889
0.540578
0.543541
-0.0372465
0.0156294
0.0764648
0.143436
0.215451
0.290686
0.366111
0.436827
0.494896
0.528278
0.526019
0.505535
0.488925
0.482773
0.484865
0.490727
0.497865
0.504695
0.510663
0.51382
-0.0505515
0.00397775
0.0665959
0.135726
0.210277
0.288444
0.367153
0.441266
0.502013
0.534702
0.523906
0.48895
0.459965
0.447743
0.448997
0.456802
0.465915
0.474203
0.480991
0.484604
-0.0643496
-0.00811496
0.0563239
0.127614
0.204702
0.285844
0.367973
0.445856
0.510085
0.543357
0.524231
0.471624
0.425765
0.405408
0.407695
0.420155
0.433813
0.44526
0.453821
0.45821
-0.0787669
-0.0206644
0.0456126
0.11904
0.198621
0.282701
0.368339
0.450292
0.518805
0.554253
0.527749
0.454117
0.384461
0.352871
0.35836
0.380187
0.402879
0.420647
0.432571
0.438244
-0.0935264
-0.0336893
0.034431
0.109969
0.191983
0.278927
0.368053
0.454284
0.527793
0.56721
0.535258
0.437486
0.334247
0.284442
0.295627
0.33477
0.374923
0.404472
0.423021
0.430444
-0.108587
-0.0470963
0.0228239
0.100409
0.184762
0.274471
0.366985
0.457567
0.536638
0.581854
0.547417
0.423298
0.272751
0.190302
0.210096
0.281967
0.354043
0.40462
0.432976
0.443834
-0.124182
-0.0608021
0.0109002
0.0904425
0.176987
0.269305
0.365096
0.459958
0.544923
0.597624
0.564645
0.413591
0.197792
0.0545696
0.0856312
0.217426
0.347825
0.429631
0.470646
0.481663
-0.139892
-0.0747561
-0.00123038
0.0801766
0.16874
0.263472
0.362326
0.461347
0.552315
0.613806
0.586888
0.411308
0.109237
-0.154436
-0.113144
0.13059
0.360302
0.492664
0.550085
0.546255
-0.155988
-0.0888022
-0.0134213
0.0696535
0.160038
0.257011
0.35868
0.461641
0.558596
0.629912
0.613967
0.42092
-0.00323855
-0.516437
-0.487222
0.00673546
0.390589
0.592107
0.678861
0.673139
-0.172284
-0.102779
-0.0255998
0.0588122
0.150739
0.249755
0.354028
0.460679
0.563612
0.645776
0.64634
0.448724
-0.150935
-1.21916
-1.29925
-0.286643
0.362162
0.619429
0.664261
0.579726
-0.18833
-0.116137
-0.037457
0.0478052
0.141094
0.241953
0.34841
0.458471
0.566898
0.660133
0.681464
0.498179
-0.290816
-2.04893
-2.41673
-0.889012
0.0099169
0.277603
0.278177
0.243204
-0.203617
-0.127906
-0.0482589
0.0373288
0.131783
0.234136
0.342094
0.455174
0.568557
0.67197
0.715696
0.56673
-0.265769
-2.30393
-2.75917
-1.3996
-0.618868
-0.261117
-0.146099
-0.0899925
-0.301224
-0.136072
-0.0592065
0.0263293
0.121539
0.225074
0.335173
0.450573
0.568206
0.680551
0.746945
0.65958
0.0502662
-1.70895
-2.17629
-1.37402
-0.844671
-0.557866
-0.464461
-0.386362
-0.163741
-0.146296
-0.0764835
0.00949784
0.105918
0.211226
0.322857
0.441352
0.563866
0.68573
0.773249
0.743341
0.350404
-0.503333
-0.902564
-0.86704
-0.804041
-0.740747
-0.709616
-0.61259
-0.221107
-0.164809
-0.0914923
-0.0047548
0.0927059
0.198923
0.312479
0.43277
0.557274
0.682737
0.779461
0.780862
0.539827
0.0147144
-0.411856
-0.6379
-0.765589
-0.843435
-0.897453
-0.823035
-0.254094
-0.188958
-0.110585
-0.0218648
0.0769977
0.184549
0.299927
0.421248
0.546686
0.673722
0.774548
0.793127
0.630657
0.263397
-0.153884
-0.50092
-0.774424
-0.978505
-1.15391
-1.09066
-0.287874
-0.214659
-0.131627
-0.0400551
0.0606533
0.169838
0.286289
0.408064
0.534738
0.663633
0.764189
0.785935
0.659036
0.358094
-0.0390785
-0.453871
-0.841506
-1.18072
-1.52588
-1.52635
-0.319665
-0.241083
-0.15424
-0.0596815
0.0432242
0.153811
0.271071
0.394406
0.52148
0.64728
0.743522
0.7641
0.657488
0.384302
0.0102749
-0.448188
-0.943224
-1.40094
-1.90652
-2.3342
-0.350041
-0.268454
-0.178499
-0.0810299
0.0239357
0.136183
0.254932
0.378338
0.504555
0.630009
0.723182
0.739928
0.643846
0.396529
0.0463979
-0.42193
-1.00188
-1.60096
-1.93073
-2.22828
-0.380398
-0.297037
-0.204485
-0.10451
0.00255313
0.116485
0.236316
0.360742
0.487498
0.609979
0.696717
0.709024
0.61845
0.397516
0.0686784
-0.374903
-0.956119
-1.58055
-1.84132
-1.85679
-0.41123
-0.32678
-0.23218
-0.13002
-0.0208594
0.0948432
0.215906
0.340453
0.465885
0.586073
0.669765
0.681723
0.601751
0.418485
0.126677
-0.279441
-0.818804
-1.41438
-1.71403
-1.66549
-0.443029
-0.357657
-0.261364
-0.157345
-0.04644
0.0706466
0.192713
0.318045
0.443392
0.561544
0.642787
0.65764
0.595985
0.451612
0.227098
-0.09576
-0.538112
-0.988727
-1.19319
-1.12664
-0.476046
-0.389833
-0.292331
-0.186782
-0.074003
0.0449074
0.168342
0.293994
0.418481
0.535273
0.616889
0.639395
0.60149
0.505319
0.360191
0.173382
-0.0492898
-0.214505
-0.272104
-0.243862
-0.510174
-0.423288
-0.324611
-0.217457
-0.103056
0.0172148
0.141654
0.267874
0.392573
0.509659
0.593934
0.627349
0.616051
0.571838
0.509125
0.444724
0.394564
0.381718
0.408121
0.428448
-0.545568
-0.458353
-0.358766
-0.250095
-0.134013
-0.0121211
0.113693
0.240911
0.366474
0.48528
0.574352
0.620981
0.635769
0.633556
0.628735
0.632285
0.653611
0.694832
0.737716
0.751893
-0.583769
-0.495409
-0.394302
-0.283888
-0.166064
-0.0425687
0.084806
0.213591
0.340927
0.462799
0.558676
0.619212
0.656221
0.683345
0.710936
0.744425
0.785206
0.829134
0.865023
0.876206
-0.624496
-0.534513
-0.431254
-0.318884
-0.199089
-0.0735613
0.0558464
0.186719
0.31662
0.442573
0.546687
0.620096
0.674383
0.719902
0.762946
0.805398
0.846659
0.88446
0.914102
0.9243
-0.667103
-0.574636
-0.468934
-0.354177
-0.232034
-0.10416
0.0275237
0.160816
0.293725
0.424124
0.536611
0.621861
0.688563
0.745321
0.795623
0.840763
0.880598
0.914563
0.94082
0.950844
-0.70958
-0.614518
-0.505967
-0.388561
-0.263857
-0.133533
0.000531525
0.136424
0.272596
0.408364
0.528587
0.622736
0.69825
0.76153
0.815546
0.861729
0.90084
0.933527
0.958314
0.968059
-0.749229
-0.651837
-0.540698
-0.420587
-0.293404
-0.160746
-0.0243972
0.114022
0.253456
0.394194
0.520813
0.622092
0.703244
0.770262
0.826163
0.872754
0.911445
0.943392
0.967333
0.976823
-0.783283
-0.684344
-0.570967
-0.448589
-0.319303
-0.184708
-0.0464714
0.0940866
0.236291
0.381012
0.512646
0.618736
0.703302
0.772372
0.829115
0.875785
0.914057
0.945484
0.968601
0.978079
-0.808792
-0.709379
-0.594513
-0.470537
-0.339891
-0.204164
-0.0648017
0.0769973
0.220922
0.368196
0.502954
0.611806
0.698224
0.768156
0.825107
0.871546
0.909433
0.940312
0.962648
0.972063
-0.82226
-0.723656
-0.608439
-0.48412
-0.353299
-0.217568
-0.0784529
0.0631307
0.207193
0.355109
0.490902
0.60057
0.687423
0.75736
0.814059
0.86015
0.897646
0.928109
0.949914
0.959449
-0.819738
-0.723904
-0.609445
-0.486266
-0.357075
-0.223415
-0.0865286
0.0528429
0.194857
0.341092
0.475614
0.584115
0.67002
0.73917
0.795236
0.840835
0.877969
0.908124
0.929502
0.939223
-0.796955
-0.704691
-0.593076
-0.47345
-0.348452
-0.219587
-0.0877795
0.0465474
0.183793
0.325468
0.456032
0.56123
0.644672
0.712072
0.766967
0.811824
0.84852
0.878405
0.899548
0.909522
-0.744686
-0.658878
-0.554054
-0.441473
-0.32451
-0.204217
-0.081076
0.0448062
0.173946
0.307713
0.431117
0.530504
0.609513
0.673658
0.72633
0.769759
0.805592
0.835068
0.8564
0.86701
-0.65333
-0.578364
-0.485752
-0.385993
-0.282494
-0.17564
-0.0654916
0.0480407
0.165391
0.287545
0.400259
0.490725
0.562448
0.62075
0.668949
0.709038
0.742322
0.769997
0.792827
0.802881
-0.51591
-0.459412
-0.384577
-0.305169
-0.221551
-0.133465
-0.0407546
0.0565991
0.158646
0.265615
0.364036
0.442064
0.502826
0.551317
0.590823
0.623438
0.649877
0.670342
0.685825
0.692774
-0.305644
-0.282457
-0.244545
-0.198027
-0.143052
-0.0799567
-0.00902017
0.0694434
0.154969
0.246958
0.332477
0.399852
0.451257
0.490766
0.521093
0.544375
0.56293
0.578336
0.590167
0.594547
-0.127375
-0.122209
-0.110173
-0.0903129
-0.0613661
-0.0223536
0.0269636
0.086338
0.155042
0.231893
0.304728
0.362032
0.404907
0.436794
0.460296
0.477201
0.488497
0.49518
0.498644
0.49992
-0.0281018
-0.0273109
-0.0226071
-0.012955
0.00313325
0.027229
0.0607033
0.104271
0.157827
0.220346
0.280942
0.328612
0.363621
0.388713
0.406032
0.417426
0.424569
0.428732
0.430663
0.431051
0.0264871
0.0269879
0.0294915
0.0353139
0.0457938
0.0622831
0.0861165
0.11844
0.159821
0.209782
0.259168
0.298106
0.326366
0.346239
0.359762
0.368596
0.373995
0.376952
0.37828
0.378618
0.061959
0.0625584
0.0644724
0.068504
0.0756657
0.0872137
0.104499
0.128741
0.160714
0.200312
0.240103
0.271586
0.2943
0.310095
0.320656
0.327405
0.331481
0.333749
0.334821
0.335119
0.0855071
0.0860087
0.0874765
0.0904589
0.0957073
0.10418
0.117002
0.135325
0.160025
0.19123
0.223006
0.24825
0.266406
0.278943
0.287272
0.292576
0.295775
0.297552
0.298396
0.298631
0.100906
0.10132
0.102453
0.104702
0.108624
0.114968
0.124645
0.138637
0.157767
0.182284
0.207523
0.227656
0.242122
0.252081
0.258674
0.262859
0.26538
0.266783
0.267453
0.267639
0.110411
0.110738
0.111614
0.113329
0.116311
0.121132
0.128514
0.139268
0.154115
0.173351
0.193318
0.209308
0.220802
0.228705
0.233927
0.237238
0.23923
0.240339
0.240868
0.241014
0.115503
0.115759
0.116436
0.117755
0.12004
0.123738
0.129415
0.137722
0.149273
0.164353
0.18011
0.192773
0.201881
0.208142
0.212278
0.214899
0.216476
0.217353
0.21777
0.217884
0.117252
0.117452
0.117976
0.118994
0.120758
0.123611
0.127999
0.134443
0.143443
0.155262
0.167675
0.17768
0.184887
0.189842
0.193113
0.195185
0.196429
0.197121
0.197451
0.19754
0.116445
0.116599
0.117007
0.117797
0.119163
0.121374
0.124779
0.12979
0.136814
0.146075
0.155842
0.163734
0.169424
0.173338
0.175923
0.177559
0.178542
0.179087
0.179344
0.179414
0.113667
0.113787
0.114104
0.114717
0.115779
0.117498
0.120147
0.124053
0.12954
0.136798
0.144476
0.150692
0.155179
0.158267
0.160305
0.161595
0.16237
0.1628
0.163004
0.163059
0.109365
0.10946
0.109707
0.110185
0.111011
0.112349
0.114414
0.117461
0.12175
0.127437
0.133466
0.138357
0.141892
0.144324
0.145931
0.146949
0.147559
0.147897
0.148056
0.148098
0.103882
0.103956
0.104148
0.104521
0.105165
0.106209
0.10782
0.1102
0.113554
0.118008
0.12274
0.126584
0.129364
0.131278
0.132542
0.133341
0.13382
0.134086
0.134211
0.134244
0.0974802
0.0975375
0.0976875
0.0979779
0.0984805
0.0992947
0.100552
0.10241
0.105032
0.10852
0.11223
0.115248
0.117431
0.118935
0.119927
0.120555
0.120932
0.121141
0.121238
0.121264
0.0903608
0.0904055
0.0905224
0.0907488
0.0911403
0.0917754
0.0927565
0.0942082
0.0962578
0.0989853
0.101891
0.104255
0.105965
0.107144
0.107924
0.108418
0.108713
0.108876
0.108952
0.108972
0.0826843
0.0827184
0.0828093
0.0829855
0.0832911
0.0837861
0.0845507
0.0856824
0.0872813
0.0894115
0.0916831
0.0935328
0.0948721
0.0957954
0.0964047
0.0967895
0.0970205
0.0971479
0.0972073
0.0972227
0.0745718
0.0745989
0.0746696
0.0748067
0.0750439
0.0754286
0.0760229
0.0769026
0.0781468
0.0798063
0.0815758
0.0830185
0.0840649
0.0847856
0.085261
0.0855613
0.0857405
0.0858395
0.0858855
0.0858974
0.0661237
0.0661442
0.0661985
0.066304
0.0664872
0.066785
0.0672459
0.0679284
0.0688931
0.0701801
0.0715531
0.0726716
0.0734808
0.0740377
0.0744056
0.0746388
0.074779
0.0748563
0.0748924
0.0749014
0.0574118
0.0574277
0.0574697
0.0575514
0.0576923
0.0579206
0.0582741
0.0587983
0.0595398
0.0605293
0.0615853
0.0624463
0.0630701
0.0635006
0.0637858
0.0639656
0.0640722
0.0641312
0.0641588
0.0641656
0.0484995
0.0485115
0.0485432
0.048605
0.048712
0.0488854
0.0491532
0.0495508
0.0501133
0.0508645
0.0516674
0.0523226
0.0527981
0.0531256
0.0533399
0.053475
0.0535563
0.0536008
0.0536209
0.0536264
0.0394355
0.0394446
0.039468
0.0395133
0.0395917
0.0397204
0.0399201
0.0402158
0.0406339
0.0411916
0.041787
0.0422717
0.0426219
0.0428626
0.0430224
0.0431241
0.0431845
0.0432176
0.0432333
0.0432373
0.0302582
0.0302645
0.0302805
0.0303131
0.03037
0.0304622
0.0306044
0.0308147
0.0311125
0.0315098
0.0319341
0.03228
0.0325309
0.0327047
0.0328182
0.0328884
0.0329304
0.0329537
0.0329641
0.0329665
0.0210004
0.0210051
0.0210163
0.0210378
0.021076
0.0211378
0.021232
0.0213703
0.0215655
0.0218259
0.022104
0.0223308
0.0224934
0.0226036
0.0226773
0.022725
0.0227528
0.0227671
0.0227732
0.0227748
0.0116863
0.0116892
0.0116966
0.0117092
0.0117307
0.0117638
0.0118142
0.0118885
0.0119931
0.0121314
0.0122783
0.0123977
0.0124842
0.0125428
0.0125803
0.0126028
0.0126169
0.0126258
0.0126311
0.0126334
0.0023377
0.00233645
0.0023367
0.00233914
0.00234299
0.00234808
0.00235628
0.00236862
0.0023861
0.00241017
0.00243998
0.00246757
0.00248828
0.0025042
0.00251528
0.00252238
0.00252672
0.00252868
0.00252889
0.00252771
-1.28262
-1.02589
-0.757662
-0.522193
-0.299894
-0.0642596
0.176085
0.402582
0.570199
0.529202
-0.761736
-0.574365
-0.383991
-0.201606
-0.022221
0.147624
0.302561
0.425885
0.486543
0.478925
-0.364326
-0.234145
-0.0984412
0.0324233
0.156646
0.267677
0.358061
0.421924
0.454205
0.461651
-0.0784325
0.00883652
0.1018
0.190316
0.271036
0.340613
0.394824
0.432642
0.457499
0.470031
0.121297
0.180066
0.241875
0.300003
0.352086
0.396472
0.431665
0.458111
0.478943
0.494491
0.265317
0.305898
0.344865
0.382833
0.417545
0.447375
0.472062
0.492571
0.50884
0.521602
0.372408
0.396541
0.423151
0.449995
0.474942
0.497505
0.516583
0.531304
0.540935
0.546009
0.454498
0.471912
0.49408
0.516984
0.538082
0.555628
0.568376
0.574412
0.57662
0.573453
0.517207
0.535556
0.558012
0.578428
0.596871
0.612866
0.625708
0.632445
0.633412
0.634473
0.569783
0.597241
0.628026
0.657712
0.684923
0.706695
0.72088
0.727803
0.725879
0.734691
0.653197
0.704663
0.749753
0.784336
0.809211
0.826953
0.840251
0.849818
0.855324
0.8691
0.827481
0.86253
0.890903
0.912807
0.93224
0.950806
0.967962
0.981739
0.994318
1.01069
1.01574
1.03407
1.05079
1.06805
1.08394
1.09753
1.10936
1.123
1.1404
1.16007
1.19914
1.20896
1.22071
1.23181
1.24136
1.25125
1.26199
1.27279
1.28342
1.29832
1.4064
1.41026
1.39576
1.38117
1.3747
1.38001
1.39836
1.42848
1.46037
1.48698
1.71276
1.57806
1.50139
1.45877
1.44141
1.44558
1.47261
1.52886
1.63157
1.85589
0.732972
0.73237
0.730209
0.723737
0.713544
0.703129
0.694192
0.686964
0.68159
0.678352
0.677918
0.680038
0.684622
0.691118
0.699263
0.709129
0.719772
0.7287
0.732232
0.733302
0.664662
0.670089
0.676799
0.681385
0.68376
0.68358
0.68148
0.678632
0.675701
0.673644
0.673223
0.674863
0.677694
0.680874
0.683556
0.684935
0.683889
0.680358
0.674879
0.667794
0.66751
0.668893
0.67186
0.674349
0.676059
0.676801
0.67624
0.67463
0.672892
0.671616
0.671504
0.67264
0.67444
0.676363
0.677682
0.67765
0.676397
0.67436
0.671518
0.669079
0.665165
0.665263
0.665629
0.66622
0.666835
0.66732
0.667522
0.667352
0.666774
0.666187
0.666164
0.666969
0.667907
0.668513
0.668611
0.668345
0.667855
0.667264
0.666778
0.66657
0.660038
0.660128
0.660348
0.660626
0.660892
0.661084
0.661138
0.661012
0.660744
0.660495
0.660604
0.661188
0.661844
0.662312
0.662523
0.662505
0.662334
0.66209
0.661842
0.661687
0.654493
0.654533
0.654629
0.65477
0.65494
0.655115
0.655258
0.655339
0.655366
0.655423
0.655682
0.656126
0.656545
0.656813
0.656915
0.656893
0.656805
0.656698
0.656603
0.656545
0.648718
0.648741
0.6488
0.648884
0.648988
0.649112
0.649249
0.649395
0.649559
0.649788
0.650152
0.650595
0.650964
0.651209
0.651336
0.651379
0.651372
0.651341
0.651302
0.651272
0.642862
0.642874
0.642913
0.642976
0.643064
0.643185
0.643344
0.64355
0.643821
0.644188
0.644672
0.64517
0.645558
0.645818
0.645973
0.646053
0.646084
0.646087
0.646076
0.646062
0.6369
0.636906
0.636935
0.63699
0.637076
0.637206
0.637395
0.637661
0.63803
0.63853
0.639155
0.63976
0.640213
0.640527
0.640727
0.640844
0.640906
0.640933
0.64094
0.640935
0.630801
0.630805
0.630836
0.630893
0.630988
0.63114
0.631371
0.631709
0.632188
0.632841
0.63364
0.634392
0.634952
0.635346
0.635603
0.635762
0.635854
0.635901
0.635921
0.635922
0.624549
0.624549
0.624581
0.624646
0.62476
0.624946
0.625234
0.625664
0.626277
0.627115
0.628135
0.629086
0.629797
0.630289
0.630617
0.630825
0.630949
0.631017
0.631049
0.631056
0.618095
0.618094
0.61813
0.618209
0.61835
0.618582
0.618946
0.619492
0.620276
0.621347
0.622649
0.623856
0.624754
0.625382
0.625801
0.626069
0.626231
0.626322
0.626366
0.626377
0.611382
0.61138
0.611425
0.611523
0.6117
0.611995
0.612459
0.613155
0.614158
0.615526
0.617185
0.618721
0.619859
0.620657
0.621191
0.621533
0.621742
0.62186
0.621919
0.621934
0.604339
0.604336
0.604392
0.604517
0.604743
0.60512
0.605714
0.606606
0.607889
0.609638
0.611754
0.613707
0.615152
0.616164
0.616842
0.617277
0.617542
0.617693
0.617769
0.61779
0.59687
0.596865
0.596937
0.597098
0.597389
0.597874
0.598638
0.599784
0.601429
0.603667
0.606365
0.608847
0.61068
0.611963
0.612821
0.613372
0.613709
0.613901
0.613997
0.614024
0.588848
0.588842
0.588936
0.589144
0.589522
0.590149
0.591135
0.592613
0.594727
0.597593
0.601032
0.604184
0.606507
0.608129
0.609213
0.609909
0.610334
0.610577
0.610698
0.610732
0.580105
0.580098
0.580221
0.580494
0.580986
0.581803
0.583083
0.584995
0.587719
0.591392
0.595774
0.599772
0.602708
0.604755
0.606122
0.606999
0.607536
0.607841
0.607994
0.608036
0.570416
0.570408
0.570571
0.570932
0.57158
0.572651
0.574323
0.576809
0.580328
0.58504
0.59062
0.59568
0.599384
0.601961
0.603682
0.604785
0.605459
0.605842
0.606034
0.606086
0.559471
0.559463
0.559683
0.560166
0.561029
0.562448
0.56465
0.5679
0.572463
0.578512
0.585606
0.591993
0.59665
0.599887
0.602049
0.603434
0.60428
0.604763
0.605003
0.605068
0.546836
0.54683
0.547134
0.547793
0.54896
0.550866
0.553797
0.55808
0.564021
0.57179
0.580785
0.588812
0.594646
0.598701
0.601411
0.603151
0.604215
0.604821
0.605124
0.605204
0.531888
0.531889
0.532324
0.533245
0.534858
0.537465
0.541426
0.547128
0.554898
0.564873
0.576227
0.586257
0.59353
0.598595
0.601993
0.604183
0.605526
0.606293
0.606677
0.606779
0.51368
0.513702
0.514353
0.515694
0.517998
0.521661
0.527121
0.534806
0.545018
0.557793
0.572027
0.584459
0.593465
0.599774
0.604042
0.606816
0.608529
0.609514
0.610009
0.610142
0.490674
0.490756
0.491816
0.493892
0.497346
0.502688
0.510415
0.520915
0.534369
0.550642
0.568303
0.583535
0.594588
0.602418
0.607801
0.61136
0.613596
0.614902
0.615574
0.615763
0.460116
0.460402
0.462377
0.465903
0.471452
0.479638
0.490882
0.505381
0.523067
0.543582
0.565174
0.583554
0.596952
0.606613
0.61344
0.618109
0.621152
0.623006
0.624013
0.624336
0.416816
0.417814
0.422258
0.428988
0.43866
0.451797
0.468452
0.488448
0.511428
0.536846
0.56273
0.584476
0.60044
0.612229
0.62089
0.627147
0.631527
0.634463
0.636269
0.636958
0.35222
0.355085
0.366428
0.380596
0.398429
0.419743
0.444087
0.471049
0.50015
0.530832
0.561071
0.586159
0.604733
0.618816
0.629631
0.637974
0.644402
0.649357
0.65318
0.654193
0.269445
0.277784
0.300894
0.327668
0.356584
0.387403
0.419983
0.454091
0.489333
0.525277
0.55994
0.588642
0.610299
0.627309
0.641036
0.652309
0.661695
0.669663
0.675682
0.677869
0.19055
0.208428
0.242417
0.279574
0.318094
0.357672
0.39806
0.438932
0.479869
0.520493
0.558883
0.590406
0.614304
0.633346
0.649005
0.66211
0.673117
0.682355
0.68971
0.69354
0.142176
0.160829
0.199105
0.241956
0.286857
0.332923
0.37949
0.425914
0.471523
0.515748
0.556557
0.589498
0.614292
0.63397
0.650058
0.663384
0.674445
0.683622
0.690771
0.69461
0.107537
0.12681
0.167844
0.214106
0.262986
0.313515
0.364717
0.415507
0.464751
0.5115
0.553469
0.586519
0.611037
0.630365
0.646116
0.659141
0.669937
0.678861
0.68594
0.689921
0.0808087
0.100562
0.143522
0.192473
0.244579
0.298679
0.353556
0.407758
0.459699
0.507916
0.549797
0.581732
0.605013
0.623302
0.638246
0.650669
0.661027
0.669624
0.676522
0.68057
0.0589133
0.0794137
0.124255
0.175429
0.230172
0.287252
0.345215
0.402243
0.456215
0.505069
0.54576
0.575457
0.596639
0.613296
0.627064
0.638661
0.648464
0.656689
0.663368
0.667419
0.0406017
0.061802
0.108377
0.161632
0.218764
0.278509
0.339218
0.398706
0.454281
0.503122
0.54164
0.56799
0.586218
0.600667
0.612909
0.623498
0.63264
0.640456
0.646909
0.650938
0.0246513
0.0466443
0.0948775
0.150076
0.20948
0.271757
0.335075
0.396868
0.453838
0.502252
0.537707
0.559587
0.573935
0.585579
0.595961
0.605363
0.613775
0.621149
0.627379
0.63141
0.0103376
0.0330091
0.0828508
0.140017
0.201667
0.266445
0.332352
0.396476
0.45484
0.502615
0.534268
0.55047
0.559888
0.568065
0.576253
0.584334
0.591964
0.598881
0.604875
0.608862
-0.00320826
0.0203419
0.0717613
0.130877
0.19478
0.262098
0.330677
0.397267
0.457207
0.504387
0.531648
0.540854
0.544097
0.54803
0.553716
0.560414
0.567312
0.573844
0.579656
0.583679
-0.0163184
0.00802371
0.0611015
0.122203
0.188392
0.258314
0.329689
0.398977
0.460845
0.507717
0.53021
0.530957
0.526456
0.525226
0.528141
0.533572
0.539942
0.546286
0.552013
0.5561
-0.0294393
-0.00419438
0.0505766
0.113642
0.182155
0.254739
0.32906
0.40133
0.465583
0.512709
0.53036
0.521054
0.506771
0.499156
0.499125
0.503659
0.510068
0.516665
0.522613
0.526961
-0.0427086
-0.0165562
0.0399269
0.104958
0.175806
0.251104
0.328492
0.404031
0.471219
0.519378
0.532512
0.511512
0.484711
0.468919
0.465793
0.470495
0.478062
0.485736
0.492396
0.497202
-0.0564194
-0.0292953
0.0289242
0.0959604
0.169147
0.247184
0.327725
0.406783
0.47749
0.527706
0.537112
0.502864
0.459815
0.432987
0.426844
0.433617
0.444426
0.454798
0.463205
0.468838
-0.0705702
-0.0424778
0.0174789
0.0865031
0.162039
0.242814
0.326564
0.409334
0.484074
0.537495
0.544557
0.495881
0.431572
0.388881
0.380118
0.391854
0.409589
0.425604
0.437545
0.444943
-0.0853396
-0.0561317
0.00557621
0.0765671
0.154393
0.237857
0.324808
0.411404
0.490642
0.548447
0.555141
0.491625
0.399631
0.334115
0.321007
0.342885
0.373963
0.400868
0.419692
0.430293
-0.100274
-0.0702192
-0.00675466
0.0661822
0.146214
0.232266
0.322335
0.412812
0.496874
0.560178
0.568983
0.491379
0.364355
0.262821
0.241493
0.28141
0.337675
0.384875
0.415062
0.42973
-0.11569
-0.0846313
-0.0194477
0.0553823
0.137549
0.226046
0.319074
0.413357
0.50244
0.572216
0.585901
0.496624
0.326304
0.167617
0.127756
0.200065
0.302102
0.38469
0.432545
0.454209
-0.131414
-0.0993196
-0.0324044
0.044276
0.128443
0.219229
0.315064
0.412961
0.507055
0.583992
0.605441
0.50885
0.285893
0.0366401
-0.0471923
0.083578
0.271547
0.414802
0.48764
0.512516
-0.147421
-0.114253
-0.0454731
0.0330116
0.118979
0.211853
0.31031
0.411596
0.510514
0.594968
0.626779
0.529312
0.247256
-0.151583
-0.341459
-0.101111
0.247183
0.465939
0.583045
0.602577
-0.163673
-0.129369
-0.0585372
0.0215853
0.109098
0.203867
0.304727
0.409188
0.512845
0.60514
0.650001
0.560423
0.217256
-0.464578
-0.962816
-0.491719
0.197976
0.539816
0.708947
0.725517
-0.179966
-0.144443
-0.0712761
0.0101048
0.0988122
0.195272
0.298314
0.405589
0.513757
0.613819
0.67364
0.60269
0.212841
-0.935662
-2.10154
-1.24471
-0.0713777
0.414764
0.514735
0.430044
-0.195672
-0.158604
-0.0833266
-0.00148079
0.0881207
0.185956
0.290993
0.400852
0.513013
0.6204
0.695685
0.652605
0.245392
-1.22763
-2.95017
-1.96801
-0.649536
-0.119021
0.0507647
0.0537371
-0.213113
-0.170095
-0.0940975
-0.0131172
0.0772699
0.17636
0.282535
0.395074
0.510626
0.624299
0.714108
0.703345
0.331579
-1.08757
-2.70218
-1.99538
-1.06394
-0.584945
-0.365713
-0.296018
-0.160675
-0.138448
-0.0681067
0.0173757
0.113008
0.217302
0.330125
0.446584
0.565862
0.681444
0.754833
0.685625
0.134334
-1.27095
-1.725
-1.24347
-0.858023
-0.633822
-0.548471