/*--------------------------------*- C++ -*----------------------------------*\
  =========                 |
  \\      /  F ield         | OpenFOAM: The Open Source CFD Toolbox
   \\    /   O peration     | Website:  https://openfoam.org
    \\  /    A nd           | Version:  9
     \\/     M anipulation  |
\*---------------------------------------------------------------------------*/
FoamFile
{
    format      ascii;
    class       surfaceScalarField;
    location    "3";
    object      phi;
}
// * * * * * * * * * * * * * * * * * * * * * * * * * * * * * * * * * * * * * //

dimensions      [0 3 -1 0 0 0 0];

internalField   nonuniform List<scalar> 
17370
(
-0.0914867
0.0969434
0.283554
-0.078196
0.0588139
0.366158
-0.0412622
0.0293948
0.428036
-0.0200615
0.0141301
0.505183
-0.00964459
0.00685288
0.602194
-0.00472637
0.00339647
0.720387
-0.00239478
0.00180751
0.863494
-0.00133338
0.000992646
1.03579
-0.000662431
0.000400383
1.24276
-0.00016214
-7.00034e-07
1.49135
0.000179866
-0.000435568
1.49145
0.000698416
-0.00102544
1.24302
0.00136396
-0.00183201
1.03611
0.00240968
-0.00340574
0.863903
0.00473731
-0.00686668
0.721187
0.00966038
-0.014147
0.603701
0.0200777
-0.0294094
0.508771
0.0412763
-0.0588284
0.43372
0.0782094
-0.0969528
0.365519
0.0914913
0.19752
-0.130468
0.0977891
0.0326794
-0.364564
0.356193
-0.0574849
0.0658558
-0.446214
0.44989
-0.0651985
0.061523
-0.520535
0.525773
-0.0570619
0.0518238
-0.612152
0.61831
-0.0464193
0.0402611
-0.726353
0.732225
-0.0345689
0.028696
-0.867068
0.871747
-0.0237796
0.0191006
-1.0383
1.04169
-0.0154017
0.0120136
-1.24471
1.24734
-0.00928549
0.00664882
-1.49298
1.49535
-0.00438432
0.00200536
-1.49286
1.49505
0.000199449
-0.00238925
-1.24419
1.2464
0.00473972
-0.00694544
-1.03751
1.04019
0.0095235
-0.0122004
-0.865873
0.869553
0.015559
-0.019239
-0.724048
0.728951
0.0239057
-0.0288089
-0.60833
0.614017
0.0346689
-0.0403562
-0.514536
0.519938
0.0465148
-0.0519169
-0.439673
0.444122
0.0571571
-0.0616068
-0.374098
0.374737
0.0652647
-0.0659042
-0.259343
0.23452
0.0575161
-0.0326928
-0.0850758
0.081353
0.00372283
-0.0212796
0.0270796
-0.371727
0.365927
-0.0312011
0.0332849
-0.445017
0.442933
-0.0336854
0.0331472
-0.521785
0.522323
-0.0317656
0.0300783
-0.61697
0.618658
-0.0277213
0.0252367
-0.732465
0.73495
-0.0222011
0.0193017
-0.873098
0.875997
-0.0159957
0.0129743
-1.04346
1.04648
-0.00958639
0.00643359
-1.24928
1.25243
-0.00284355
-0.000558172
-1.49797
1.50137
0.0039886
-0.00753468
-1.49829
1.50183
0.0106819
-0.0140463
-1.25046
1.25383
0.0170214
-0.0202119
-1.04532
1.04851
0.0229978
-0.0258987
-0.875584
0.878485
0.0283012
-0.0305782
-0.735744
0.738021
0.0321879
-0.0334992
-0.620899
0.62221
0.0339832
-0.0335405
-0.527216
0.526773
0.0314313
-0.0272728
-0.44923
0.445072
0.0214264
-0.0126277
-0.34628
0.337481
0.00375274
-0.0850296
0.0812768
-0.0812869
0.0815446
-0.000257649
-0.00407768
0.0080515
-0.360056
0.356082
-0.0125112
0.0160448
-0.438873
0.43534
-0.0190622
0.0209252
-0.521207
0.519344
-0.0221232
0.0224598
-0.619636
0.619299
-0.0220432
0.0209799
-0.736991
0.738054
-0.0191998
0.0171303
-0.878588
0.880658
-0.0145156
0.0119115
-1.04939
1.05199
-0.0089004
0.00600457
-1.25552
1.25842
-0.00255378
-0.000839442
-1.5048
1.5082
0.00419602
-0.00758246
-1.50535
1.50873
0.0104608
-0.0134097
-1.25707
1.26002
0.0158806
-0.0183822
-1.05146
1.05397
0.0203667
-0.0220673
-0.880956
0.882657
0.0230537
-0.0233863
-0.739731
0.740064
0.0229599
-0.0216183
-0.622215
0.620873
0.0196303
-0.0164861
-0.523955
0.52081
0.0128414
-0.00827442
-0.439292
0.434725
0.00421682
-0.000908736
-0.331484
0.328176
-0.000236782
-0.0811887
0.0814254
-0.0813787
0.0811688
0.00020988
-0.00205317
0.00365579
-0.353654
0.352052
-0.00563537
0.00743394
-0.43283
0.431031
-0.00923031
0.0106603
-0.517603
0.516173
-0.0118974
0.0126938
-0.618568
0.617771
-0.0131276
0.0131226
-0.738372
0.738377
-0.0126508
0.0118114
-0.881933
0.882773
-0.0104575
0.00886554
-1.05402
1.05562
-0.00674003
0.00449832
-1.26105
1.26329
-0.00174027
-0.00105043
-1.51143
1.51422
0.00382195
-0.00651646
-1.5119
1.5146
0.00867468
-0.010723
-1.26257
1.26462
0.0122124
-0.0133918
-1.05565
1.05683
0.0140737
-0.0143787
-0.883414
0.883719
0.0142361
-0.0136493
-0.739716
0.739129
0.0127244
-0.0113604
-0.619379
0.618015
0.00982347
-0.00792072
-0.518319
0.516416
0.00603667
-0.00396935
-0.43172
0.429652
0.00228147
-0.000929263
-0.326201
0.324849
0.000250365
-0.0812246
0.0809742
-0.0810537
0.0809706
8.31065e-05
-0.000969703
0.00169841
-0.350967
0.350239
-0.00262147
0.00350595
-0.429747
0.428862
-0.0044727
0.00531144
-0.515045
0.514206
-0.00613326
0.00672991
-0.617048
0.616452
-0.00717672
0.00736542
-0.738244
0.738055
-0.00729674
0.00695893
-0.883312
0.88365
-0.00626285
0.00532767
-1.05685
1.05779
-0.00397207
0.00245419
-1.26515
1.26667
-0.000569192
-0.00132333
-1.51653
1.51842
0.00318927
-0.00497425
-1.51681
1.5186
0.00632429
-0.00746303
-1.26618
1.26731
0.00824072
-0.00875089
-1.05763
1.05814
0.0089086
-0.00877732
-0.883754
0.883623
0.00840635
-0.00776569
-0.738471
0.73783
0.00700477
-0.00603307
-0.616831
0.61586
0.0050691
-0.00397349
-0.514953
0.513857
0.00297834
-0.00194236
-0.428186
0.42715
0.00112086
-0.000447662
-0.323905
0.323232
0.000104129
-0.0808291
0.080725
-0.0808962
0.0808453
5.09046e-05
-0.000507222
0.000860656
-0.349737
0.349383
-0.00130007
0.00172542
-0.428255
0.427829
-0.00220083
0.00262806
-0.513605
0.513178
-0.00306562
0.00340801
-0.61599
0.615648
-0.00369311
0.00384513
-0.737869
0.737717
-0.00385935
0.00370545
-0.883867
0.884021
-0.00332535
0.00277046
-1.0585
1.05905
-0.00192588
0.000948453
-1.26789
1.26887
0.000294647
-0.00157674
-1.51998
1.52126
0.00282533
-0.00396039
-1.52003
1.52116
0.00475228
-0.0053459
-1.26814
1.26873
0.0056853
-0.00583509
-1.05844
1.05859
0.0057762
-0.00552989
-0.883409
0.883163
0.00517162
-0.00466917
-0.737255
0.736752
0.00414037
-0.0035173
-0.615085
0.614462
0.00293338
-0.00229816
-0.513036
0.512401
0.00173799
-0.00116454
-0.426397
0.425823
0.000704683
-0.000309789
-0.322726
0.322331
8.57416e-05
-0.0806251
0.0805394
-0.0808167
0.0808037
1.29545e-05
-0.000201131
0.000361616
-0.349139
0.348979
-0.000565236
0.000763713
-0.427533
0.427335
-0.000986364
0.00118627
-0.512879
0.512679
-0.00139109
0.00155149
-0.615404
0.615244
-0.00168161
0.00174128
-0.737611
0.737551
-0.00172
0.00160174
-0.884146
0.884264
-0.00134282
0.000974274
-1.0595
1.05987
-0.000415554
-0.000230668
-1.26966
1.2703
0.00106554
-0.00191027
-1.52231
1.52315
0.00270728
-0.0033971
-1.52205
1.52274
0.00384421
-0.00413488
-1.26915
1.26944
0.00424687
-0.00422085
-1.05864
1.05861
0.00407703
-0.00381682
-0.882905
0.882645
0.00350886
-0.00312024
-0.736313
0.735924
0.00273803
-0.00230787
-0.613951
0.61352
0.00191745
-0.00150208
-0.511894
0.511479
0.00114153
-0.000775115
-0.425372
0.425005
0.000479217
-0.000218085
-0.322015
0.321754
6.27139e-05
-0.0804677
0.080405
-0.0808028
0.0808116
-8.81467e-06
-1.44525e-05
5.98554e-05
-0.348882
0.348837
-0.000124498
0.000187538
-0.427211
0.427148
-0.000255504
0.000312485
-0.512558
0.512501
-0.000363713
0.000393389
-0.615154
0.615124
-0.000398173
0.000367127
-0.737537
0.737568
-0.000281727
0.00014483
-0.884387
0.884524
8.32563e-05
-0.000371688
-1.06019
1.06047
0.000781067
-0.00123534
-1.27084
1.27129
0.00180372
-0.00235585
-1.52383
1.52439
0.00284837
-0.00324028
-1.52327
1.52366
0.00345725
-0.00354606
-1.26963
1.26972
0.00352759
-0.00340373
-1.05853
1.05841
0.00321854
-0.00295742
-0.882385
0.882124
0.00268335
-0.00236069
-0.735574
0.735252
0.00205758
-0.00172704
-0.613149
0.612818
0.00143332
-0.00112587
-0.511128
0.51082
0.000861887
-0.000594593
-0.424698
0.424431
0.000376545
-0.000178297
-0.32153
0.321332
5.39618e-05
-0.0803479
0.0802939
-0.0808302
0.0808575
-2.73088e-05
0.00010185
-0.000129599
-0.348833
0.348861
0.000162553
-0.000195901
-0.427137
0.42717
0.00023809
-0.000284242
-0.512499
0.512545
0.000346343
-0.000417304
-0.615148
0.615219
0.000515591
-0.000629729
-0.737642
0.737756
0.00078792
-0.000968703
-0.884681
0.884862
0.00121264
-0.00148048
-1.06075
1.06101
0.00182322
-0.00217382
-1.27169
1.27204
0.00258153
-0.00294501
-1.52483
1.5252
0.00323426
-0.00342017
-1.52394
1.52413
0.0034813
-0.00345167
-1.26973
1.26971
0.00332614
-0.00312836
-1.05824
1.05805
0.00290432
-0.00262767
-0.881857
0.881581
0.00235913
-0.00205831
-0.734945
0.734644
0.00178558
-0.00149514
-0.612514
0.612223
0.00124171
-0.000979635
-0.510542
0.51028
0.000756212
-0.000530034
-0.424189
0.423963
0.000343177
-0.000168082
-0.321149
0.320974
5.2975e-05
-0.0802414
0.0801884
-0.0808923
0.0809357
-4.33496e-05
0.000221681
-0.000312968
-0.34892
0.349011
0.000416598
-0.000519721
-0.42724
0.427343
0.00064431
-0.000770137
-0.512633
0.512758
0.000923071
-0.00107857
-0.615333
0.615488
0.00126843
-0.00146164
-0.73791
0.738103
0.00169752
-0.00193641
-0.88507
0.885309
0.00222467
-0.00250952
-1.06129
1.06157
0.00283979
-0.00314598
-1.27236
1.27267
0.00346573
-0.00371208
-1.52549
1.52574
0.00386489
-0.00390641
-1.52423
1.52427
0.00384229
-0.00369077
-1.26962
1.26947
0.00349726
-0.00323448
-1.05782
1.05755
0.00296604
-0.0026554
-0.88129
0.880979
0.0023666
-0.00205343
-0.734341
0.734028
0.00177562
-0.00148477
-0.611937
0.611646
0.00123395
-0.000976739
-0.510024
0.509767
0.000758597
-0.000537922
-0.423743
0.423522
0.00035411
-0.000177861
-0.320801
0.320625
5.7734e-05
-0.0801337
0.080076
-0.0809878
0.081049
-6.11558e-05
0.000327712
-0.00047474
-0.349131
0.349278
0.000646983
-0.000817802
-0.42748
0.427651
0.00102174
-0.00122431
-0.512922
0.513125
0.00146545
-0.00170392
-0.615685
0.615923
0.00198582
-0.00226242
-0.738337
0.738613
0.00258561
-0.00289731
-0.885582
0.885894
0.00325255
-0.00358289
-1.06188
1.06221
0.00393932
-0.00424303
-1.27297
1.27327
0.00452553
-0.00470386
-1.52595
1.52613
0.00476466
-0.00469814
-1.52426
1.52419
0.00454122
-0.00428635
-1.26926
1.26901
0.00400407
-0.00365997
-1.05725
1.05691
0.00332878
-0.00295961
-0.880642
0.880273
0.00262584
-0.00227053
-0.733697
0.733342
0.00196004
-0.00163844
-0.611343
0.611022
0.00136334
-0.00108267
-0.509501
0.50922
0.000845163
-0.000604864
-0.423295
0.423055
0.000403128
-0.000206081
-0.32044
0.320243
6.81409e-05
-0.0800135
0.0799454
-0.0811198
0.0812012
-8.13523e-05
0.000446683
-0.000653552
-0.349454
0.349661
0.000897515
-0.00113908
-0.427856
0.428098
0.00142626
-0.0017101
-0.513367
0.513651
0.00204559
-0.00237471
-0.616206
0.616535
0.00275939
-0.00313128
-0.738936
0.739308
0.00355823
-0.0039608
-0.886249
0.886651
0.00440758
-0.00480894
-1.06257
1.06297
0.00522389
-0.00555696
-1.27359
1.27392
0.00583848
-0.00597928
-1.52628
1.52642
0.00597114
-0.00580886
-1.52408
1.52392
0.00555586
-0.00519699
-1.2687
1.26834
0.00482088
-0.00437914
-1.05652
1.05608
0.00396445
-0.00351116
-0.879865
0.879412
0.00310697
-0.00268125
-0.732955
0.732529
0.00231214
-0.00193192
-0.610674
0.610294
0.00160784
-0.00127812
-0.508918
0.508588
0.000999865
-0.000718511
-0.422796
0.422515
0.000481522
-0.000248057
-0.32003
0.319797
8.26522e-05
-0.0798707
0.079788
-0.0812944
0.0814011
-0.000106625
0.000590107
-0.000866088
-0.349901
0.350177
0.00119215
-0.00151514
-0.428378
0.428701
0.00189872
-0.00227704
-0.51398
0.514358
0.00272294
-0.00315863
-0.616915
0.61735
0.0036653
-0.00415193
-0.739734
0.740221
0.00470581
-0.00522263
-0.887108
0.887624
0.00578823
-0.00628758
-1.06342
1.06392
0.00679114
-0.00718112
-1.27428
1.27467
0.00748891
-0.00761247
-1.52655
1.52668
0.00754613
-0.0072897
-1.52371
1.52345
0.00693379
-0.00645354
-1.26793
1.26744
0.00596436
-0.00539951
-1.05558
1.05501
0.00487641
-0.00430993
-0.878906
0.87834
0.00380837
-0.00328322
-0.732058
0.731532
0.00282978
-0.00236414
-0.609875
0.609409
0.00196823
-0.00156612
-0.508226
0.507824
0.00122714
-0.000884245
-0.422205
0.421862
0.000594561
-0.000307715
-0.319538
0.319251
0.000103091
-0.0796959
0.0795928
-0.0815225
0.081661
-0.000138484
0.000768458
-0.00112935
-0.350493
0.350854
0.001556
-0.00197832
-0.429071
0.429494
0.00247934
-0.002973
-0.514791
0.515285
0.00355403
-0.00412059
-0.617848
0.618414
0.00477784
-0.00540701
-0.740774
0.741404
0.00612012
-0.00678159
-0.888209
0.888871
0.0075003
-0.00812825
-1.06448
1.0651
0.00875269
-0.00922564
-1.2751
1.27557
0.00958288
-0.00970162
-1.5268
1.52692
0.00957921
-0.00921813
-1.52314
1.52278
0.00874188
-0.00811406
-1.26689
1.26627
0.00748317
-0.0067621
-1.05437
1.05365
0.00609858
-0.00538406
-0.877704
0.876989
0.00475376
-0.00409581
-0.730945
0.730287
0.00352864
-0.00294741
-0.608889
0.608308
0.00245373
-0.00195312
-0.507375
0.506875
0.00153125
-0.00110453
-0.421481
0.421054
0.000743632
-0.000385424
-0.318932
0.318573
0.000129228
-0.0794773
0.079348
-0.0818186
0.081998
-0.000179391
0.000995189
-0.00146289
-0.351265
0.351732
0.00201592
-0.00256328
-0.429975
0.430522
0.00321232
-0.00385123
-0.515847
0.516486
0.00460251
-0.0053341
-0.619058
0.61979
0.00618122
-0.00699035
-0.742117
0.742926
0.00790465
-0.00874995
-0.889618
0.890464
0.00966381
-0.0104575
-1.06581
1.0666
0.0112394
-0.011823
-1.27609
1.27668
0.0122501
-0.0123709
-1.52704
1.52716
0.0121847
-0.011698
-1.52236
1.52188
0.0110735
-0.010261
-1.26555
1.26474
0.00945176
-0.00853133
-1.05284
1.05192
0.00768836
-0.00678274
-0.876185
0.87528
0.00598621
-0.0051558
-0.729549
0.728718
0.00444139
-0.0037097
-0.607657
0.606925
0.00308889
-0.00245915
-0.506314
0.505684
0.00192838
-0.00139137
-0.420576
0.420039
0.000937138
-0.000485987
-0.318171
0.31772
0.000163022
-0.079203
0.07904
-0.0822025
0.0824355
-0.000233031
0.00128878
-0.00189333
-0.352264
0.352869
0.00260788
-0.00331501
-0.431144
0.431851
0.00415304
-0.00497748
-0.517211
0.518036
0.00594593
-0.00688798
-0.62062
0.621562
0.00797727
-0.0090158
-0.743843
0.744882
0.0101868
-0.011266
-0.891419
0.892498
0.0124282
-0.0134321
-1.0675
1.0685
0.0144139
-0.015138
-1.27733
1.27805
0.0156542
-0.0157782
-1.52728
1.5274
0.0155122
-0.0148674
-1.52131
1.52067
0.0140555
-0.0130093
-1.26382
1.26277
0.0119725
-0.0107984
-1.05088
1.0497
0.00972554
-0.00857568
-0.87426
0.87311
0.00756544
-0.00651368
-0.727784
0.726732
0.00560951
-0.00468435
-0.606102
0.605177
0.00389969
-0.00310423
-0.504977
0.504181
0.0024342
-0.00175645
-0.419436
0.418758
0.00118309
-0.000613366
-0.317214
0.316644
0.000205542
-0.0788569
0.0786514
-0.0827014
0.0830052
-0.000303807
0.0016724
-0.00245428
-0.353556
0.354338
0.00337791
-0.00429166
-0.432655
0.433569
0.00537379
-0.00643762
-0.518972
0.520036
0.00768615
-0.00889906
-0.622631
0.623844
0.0102993
-0.0116315
-0.746058
0.74739
0.0131298
-0.0145061
-0.893717
0.895093
0.0159824
-0.0172507
-1.06963
1.0709
0.0184817
-0.0193786
-1.27886
1.27975
0.020001
-0.0201227
-1.52753
1.52765
0.0197498
-0.0188998
-1.51993
1.51908
0.0178473
-0.0165021
-1.26158
1.26024
0.0151761
-0.0136792
-1.04838
1.04688
0.0123146
-0.0108546
-0.871814
0.870354
0.00957329
-0.0082406
-0.725548
0.724216
0.00709546
-0.00592416
-0.604136
0.602965
0.00493095
-0.00392439
-0.503287
0.50228
0.0030768
-0.00221969
-0.417996
0.417139
0.00149464
-0.000774445
-0.316003
0.315283
0.000259297
-0.0784208
0.0781615
-0.0833528
0.0837512
-0.00039844
0.00217918
-0.00319319
-0.355228
0.356242
0.00439006
-0.00557362
-0.434608
0.435792
0.00697401
-0.00834912
-0.521245
0.52262
0.0099607
-0.0115238
-0.625221
0.626784
0.0133246
-0.0150338
-0.748899
0.750608
0.0169497
-0.018703
-0.896647
0.8984
0.020574
-0.0221712
-1.07232
1.07392
0.0237071
-0.0248098
-1.28075
1.28185
0.0255502
-0.0256531
-1.52776
1.52787
0.0251321
-0.0240126
-1.5181
1.51698
0.0226501
-0.0209233
-1.25872
1.25699
0.0192291
-0.0173226
-1.04519
1.04328
0.0155884
-0.0137354
-0.868709
0.866856
0.012111
-0.0104226
-0.722715
0.721027
0.00897247
-0.00748971
-0.601647
0.600165
0.00623287
-0.00495942
-0.501148
0.499875
0.00388714
-0.00280281
-0.416174
0.41509
0.00188586
-0.000975807
-0.314474
0.313563
0.000326007
-0.0778705
0.0775445
-0.0842094
0.084737
-0.000527683
0.00285967
-0.00418104
-0.357398
0.35872
0.00573851
-0.00727729
-0.43714
0.438679
0.00909562
-0.0108788
-0.524185
0.525969
0.012965
-0.0149838
-0.62856
0.630579
0.0173032
-0.0194967
-0.752544
0.754738
0.0219451
-0.0241735
-0.900378
0.902606
0.0265356
-0.0285345
-1.07571
1.07771
0.0304339
-0.0317718
-1.28307
1.28441
0.0326302
-0.0326816
-1.52795
1.528
0.0319507
-0.0304744
-1.5157
1.51422
0.0287122
-0.026499
-1.25503
1.25282
0.0243393
-0.0219161
-1.04113
1.03871
0.0197161
-0.017368
-0.864769
0.862421
0.0153114
-0.0131747
-0.719127
0.716991
0.0113405
-0.00946541
-0.598497
0.596622
0.00787629
-0.0062661
-0.498442
0.496832
0.00491025
-0.0035392
-0.413871
0.4125
0.00238004
-0.00123032
-0.312541
0.311391
0.000410416
-0.0771788
0.0767684
-0.0853474
0.0860552
-0.000707844
0.00378929
-0.00552395
-0.360231
0.361966
0.00756518
-0.00957873
-0.440438
0.442451
0.0119535
-0.0142771
-0.528003
0.530326
0.0169879
-0.0196025
-0.632876
0.63549
0.0225937
-0.0254086
-0.757223
0.760038
0.0285312
-0.031352
-0.905115
0.907936
0.0343138
-0.0367906
-1.07993
1.08241
0.0391052
-0.0406933
-1.28587
1.28746
0.0416461
-0.0415859
-1.52801
1.52795
0.0405548
-0.0386066
-1.51253
1.51058
0.0363306
-0.0335019
-1.25032
1.24749
0.0307568
-0.027687
-1.03598
1.03291
0.0249051
-0.0219389
-0.859781
0.856815
0.0193416
-0.0166433
-0.714589
0.71189
0.0143264
-0.0119577
-0.594514
0.592145
0.00994964
-0.00791481
-0.495022
0.492987
0.0062011
-0.00446797
-0.410958
0.409225
0.00300268
-0.00155019
-0.310099
0.308646
0.000516048
-0.0763083
0.0757923
-0.0868831
0.0878514
-0.000968264
0.00510046
-0.00740566
-0.363957
0.366262
0.0101094
-0.0127669
-0.44476
0.447417
0.0158904
-0.0189357
-0.532986
0.536031
0.0224738
-0.0258699
-0.638471
0.641867
0.0297322
-0.0333398
-0.763226
0.766834
0.0373056
-0.0408485
-0.911101
0.914644
0.0445187
-0.0475361
-1.08515
1.08817
0.0502907
-0.0521091
-1.28917
1.29099
0.0530882
-0.0528125
-1.52779
1.52752
0.051352
-0.0487822
-1.50834
1.50577
0.0458539
-0.0422574
-1.2443
1.2407
0.0387883
-0.0349207
-1.02946
1.0256
0.0314197
-0.0276875
-0.853485
0.849753
0.0244187
-0.0210207
-0.70886
0.705462
0.0181013
-0.0151139
-0.589484
0.586496
0.0125794
-0.0100087
-0.4907
0.488129
0.0078418
-0.00564865
-0.407277
0.405084
0.00379383
-0.00195624
-0.307014
0.305176
0.000650064
-0.0752132
0.0745632
-0.0890031
0.0903742
-0.00137115
0.00705819
-0.0101877
-0.368909
0.372039
0.0138256
-0.0173725
-0.450481
0.454028
0.021513
-0.0255274
-0.539541
0.543556
0.0301626
-0.0345806
-0.645753
0.650171
0.0395596
-0.0441592
-0.770916
0.775515
0.0491463
-0.0535304
-0.918595
0.922979
0.0579824
-0.0615549
-1.09147
1.09504
0.0647063
-0.0666673
-1.29289
1.29485
0.0675281
-0.0668695
-1.52708
1.52642
0.0647997
-0.0614207
-1.50282
1.49944
0.0576782
-0.0531435
-1.23666
1.23212
0.0487998
-0.0439708
-1.02127
1.01644
0.0396023
-0.0349409
-0.845575
0.840914
0.0308513
-0.0265915
-0.701652
0.697392
0.022924
-0.0191635
-0.58314
0.579379
0.0159668
-0.0127181
-0.485239
0.481991
0.0099734
-0.00718882
-0.402621
0.399836
0.0048288
-0.00248913
-0.303112
0.300772
0.000827066
-0.0738311
0.073004
-0.092024
0.0941193
-0.00209528
0.0103365
-0.0147219
-0.375598
0.379984
0.0196965
-0.0244595
-0.45818
0.462943
0.0299579
-0.0352519
-0.548265
0.553559
0.0413158
-0.047039
-0.655261
0.660984
0.0534052
-0.0591873
-0.780695
0.786477
0.0653277
-0.0705981
-0.927802
0.933072
0.0757989
-0.0798279
-1.09886
1.10288
0.0832033
-0.0851037
-1.29682
1.29872
0.0855871
-0.0842903
-1.52548
1.52418
0.0813694
-0.076957
-1.49558
1.49116
0.0722242
-0.0665811
-1.22705
1.22141
0.0612185
-0.0552755
-1.01107
1.00512
0.0499003
-0.0441537
-0.835719
0.829972
0.0390971
-0.0338097
-0.692619
0.687331
0.0292395
-0.0245341
-0.575142
0.570437
0.0205165
-0.0164127
-0.478327
0.474223
0.0129231
-0.00935569
-0.396715
0.393148
0.00630491
-0.00325867
-0.298157
0.29511
0.00108792
-0.0720704
0.0709825
-0.0965372
0.100242
-0.00370483
0.0167146
-0.0229741
-0.384931
0.391191
0.0297351
-0.0360536
-0.468835
0.475154
0.0432715
-0.050194
-0.560016
0.566938
0.0580514
-0.0653523
-0.667615
0.674916
0.0733049
-0.080341
-0.792872
0.799908
0.0875834
-0.0935901
-0.938698
0.944705
0.0992825
-0.103467
-1.10701
1.11119
0.106688
-0.108159
-1.30044
1.30191
0.107862
-0.105572
-1.52242
1.52013
0.101497
-0.0958026
-1.48613
1.48044
0.0899065
-0.0830117
-1.21515
1.20825
0.0765277
-0.0693742
-0.998573
0.99142
0.0629114
-0.0559914
-0.823608
0.816688
0.0498815
-0.0434612
-0.681402
0.674981
0.0378797
-0.0320998
-0.565075
0.559295
0.0271289
-0.0219991
-0.469519
0.464389
0.017572
-0.012955
-0.389149
0.384532
0.00887317
-0.00465835
-0.291813
0.287598
0.00158352
-0.0697913
0.0682077
-0.103896
0.111666
-0.00776903
0.031185
-0.0397623
-0.398826
0.407403
0.0483331
-0.0563841
-0.483971
0.492022
0.0656536
-0.074491
-0.575697
0.584534
0.0843452
-0.0932185
-0.683132
0.692005
0.102526
-0.110438
-0.807261
0.815173
0.118238
-0.124403
-0.950703
0.956868
0.129924
-0.133639
-1.1151
1.11882
0.136052
-0.136512
-1.30286
1.30332
0.134866
-0.13112
-1.51711
1.51336
0.125537
-0.118308
-1.47396
1.46673
0.111099
-0.102875
-1.20066
1.19244
0.0952444
-0.0868994
-0.983622
0.975277
0.0793903
-0.0713638
-0.80909
0.801064
0.0642734
-0.0568046
-0.667766
0.660297
0.0502878
-0.0435091
-0.552547
0.545768
0.037633
-0.0314943
-0.458247
0.452108
0.0260784
-0.0201461
-0.379218
0.373286
0.0142862
-0.0075827
-0.283387
0.276683
0.00254234
-0.0667312
0.0641889
-0.119977
0.12222
-0.00224377
0.0179441
-0.0261733
-0.420338
0.428568
0.0351314
-0.0441853
-0.504406
0.513459
0.0548363
-0.065466
-0.594984
0.605614
0.0768984
-0.0870319
-0.700884
0.711018
0.0982193
-0.10806
-0.822554
0.832394
0.118214
-0.126879
-0.962299
0.970963
0.135436
-0.142247
-1.12163
1.12844
0.148248
-0.152145
-1.30275
1.30665
0.154144
-0.153447
-1.50851
1.50781
0.149931
-0.143993
-1.45852
1.45258
0.137052
-0.128215
-1.18346
1.17462
0.119561
-0.109138
-0.966289
0.955867
0.0994833
-0.0887349
-0.792376
0.781628
0.0789929
-0.0685037
-0.651947
0.641458
0.0589524
-0.0491013
-0.537711
0.52786
0.0407672
-0.0318103
-0.44437
0.435413
0.0240337
-0.0157232
-0.366206
0.357896
0.00845367
-0.00247241
-0.270712
0.264731
-0.000206377
-0.0617406
0.061947
-0.129667
0.124146
0.00552062
-0.00364616
-0.00250841
-0.441209
0.447363
0.0106252
-0.0185851
-0.525227
0.533187
0.0283171
-0.0373373
-0.61612
0.625141
0.0474457
-0.0566228
-0.721141
0.730318
0.0663839
-0.0752037
-0.841827
0.850647
0.0843431
-0.0918851
-0.979432
0.986974
0.0995425
-0.105333
-1.13523
1.14103
0.110406
-0.11343
-1.31049
1.31351
0.114413
-0.113028
-1.50663
1.50524
0.109059
-0.102955
-1.44625
1.44015
0.095921
-0.0873364
-1.16575
1.15716
0.0791564
-0.0698739
-0.945673
0.93639
0.0612437
-0.0516986
-0.770898
0.761353
0.0432048
-0.0344987
-0.630298
0.621592
0.0271346
-0.0196407
-0.516648
0.509154
0.0134523
-0.00756587
-0.423981
0.418094
0.00296386
0.00121362
-0.347012
0.342834
-0.00372603
0.00430782
-0.255691
0.255109
-0.00259392
-0.0590769
0.0616708
-0.126752
0.122769
0.0039834
-0.00606068
0.00248241
-0.457081
0.460659
0.00293361
-0.00904148
-0.542538
0.548646
0.0165204
-0.0238222
-0.634063
0.641365
0.03208
-0.0396896
-0.738933
0.746542
0.0480553
-0.0555003
-0.858753
0.866198
0.0630425
-0.069617
-0.994311
1.00089
0.0761339
-0.0811599
-1.14646
1.15148
0.0851889
-0.0873755
-1.31604
1.31823
0.0879507
-0.0862494
-1.50349
1.50179
0.0822702
-0.0765259
-1.4339
1.42816
0.0701949
-0.0628567
-1.14905
1.14171
0.0557214
-0.0480342
-0.927526
0.919839
0.0410722
-0.0335595
-0.752895
0.745382
0.027212
-0.0207383
-0.613417
0.606943
0.0154729
-0.0101063
-0.501217
0.49585
0.00604523
-0.00245067
-0.410397
0.406802
-0.000127637
0.00231257
-0.335566
0.333381
-0.0035145
0.00327695
-0.248578
0.248816
-0.00179821
-0.0594782
0.0612764
-0.125515
0.122554
0.00296068
-0.00535574
0.00305004
-0.468198
0.470504
0.000925005
-0.00585777
-0.555544
0.560477
0.0120377
-0.0178508
-0.648192
0.654005
0.0246104
-0.0308811
-0.753738
0.760008
0.0377709
-0.0439642
-0.873097
0.879291
0.0506334
-0.0560996
-1.007
1.01247
0.0617316
-0.0656642
-1.15614
1.16007
0.0690766
-0.0708383
-1.32031
1.32207
0.0709884
-0.0689692
-1.49991
1.49789
0.0653178
-0.0602176
-1.42232
1.41722
0.054686
-0.0481129
-1.13469
1.12811
0.0421311
-0.0358193
-0.912492
0.906181
0.0300588
-0.0242294
-0.738547
0.732718
0.0190101
-0.0139135
-0.600591
0.595494
0.00972685
-0.0057352
-0.490162
0.486171
0.00274563
-3.46102e-05
-0.401104
0.398393
-0.0018889
0.00308914
-0.327837
0.326637
-0.00383497
0.00324433
-0.243446
0.244037
-0.0016523
-0.0591298
0.0607821
-0.125842
0.123492
0.00234964
-0.00439459
0.00273797
-0.476884
0.478541
0.000961978
-0.00505419
-0.566221
0.570313
0.0100628
-0.0152309
-0.659761
0.664929
0.0208654
-0.0263615
-0.765885
0.771381
0.0323058
-0.0376698
-0.885085
0.890449
0.0433742
-0.0482368
-1.01779
1.02266
0.0529982
-0.0566161
-1.16388
1.1675
0.0594944
-0.0608764
-1.32354
1.32492
0.0607484
-0.0586475
-1.49582
1.49372
0.0551353
-0.0502303
-1.41175
1.40684
0.0452206
-0.0395179
-1.12186
1.11615
0.0343194
-0.0287758
-0.900012
0.894468
0.0239507
-0.0189851
-0.727043
0.722077
0.0147503
-0.0105083
-0.590512
0.58627
0.00710031
-0.00386398
-0.481623
0.478386
0.00128787
0.000919285
-0.394
0.391792
-0.00221196
0.00324217
-0.322147
0.321117
-0.00381461
0.00295373
-0.239468
0.240328
-0.0015139
-0.0589234
0.0604373
-0.126667
0.124632
0.00203444
-0.00356366
0.00178465
-0.484311
0.48609
0.00126016
-0.00508006
-0.574879
0.578699
0.00994755
-0.0144685
-0.669679
0.6742
0.0194686
-0.0243682
-0.776385
0.781284
0.0297648
-0.0346467
-0.895547
0.900429
0.0399565
-0.0442846
-1.02727
1.0316
0.0486206
-0.051888
-1.17083
1.1741
0.0543646
-0.0554243
-1.32602
1.32708
0.0549773
-0.0530251
-1.49151
1.48955
0.0494199
-0.0447633
-1.40161
1.39696
0.03998
-0.0346246
-1.11044
1.10509
0.0300473
-0.0249206
-0.889036
0.88391
0.0205589
-0.0162596
-0.717246
0.712947
0.012565
-0.00887799
-0.5822
0.578513
0.00588914
-0.00289728
-0.474681
0.471689
0.000828871
0.00105966
-0.388188
0.386299
-0.00241778
0.00322962
-0.317274
0.316462
-0.00353444
0.00280724
-0.236291
0.237018
-0.00139365
-0.0587771
0.0601708
-0.127759
0.126188
0.0015713
-0.00247192
0.000771535
-0.491165
0.492865
0.00243952
-0.00584612
-0.583068
0.586475
0.0104832
-0.0147623
-0.678654
0.682933
0.0197439
-0.0241927
-0.786069
0.790518
0.029171
-0.0336947
-0.905384
0.909908
0.0388981
-0.0429629
-1.036
1.04006
0.0469007
-0.0500189
-1.17715
1.18027
0.0526007
-0.0534079
-1.32806
1.32887
0.0527934
-0.0505055
-1.48706
1.48477
0.0469648
-0.0419469
-1.39197
1.38695
0.0373019
-0.0321954
-1.09959
1.09448
0.0276683
-0.0229858
-0.878897
0.874214
0.0188928
-0.0147609
-0.708513
0.704381
0.0115895
-0.00816266
-0.574797
0.57137
0.00533788
-0.00275844
-0.468462
0.465883
0.00073846
0.00115148
-0.383288
0.381398
-0.00232057
0.003042
-0.313275
0.312554
-0.0032529
0.00262198
-0.233583
0.234214
-0.00134718
-0.0587113
0.0600585
-0.129273
0.128018
0.00125482
-0.00149377
-0.000225708
-0.497565
0.499285
0.00366965
-0.00718503
-0.590776
0.594291
0.011662
-0.0157454
-0.687202
0.691286
0.0203365
-0.0248761
-0.795163
0.799703
0.0297428
-0.0346018
-0.914379
0.919238
0.0393477
-0.0434015
-1.04425
1.04831
0.0475725
-0.0504995
-1.18324
1.18617
0.052594
-0.0536257
-1.32943
1.33047
0.0528313
-0.05032
-1.48222
1.47971
0.0463378
-0.0412115
-1.38179
1.37666
0.036343
-0.0310675
-1.08892
1.08364
0.0265672
-0.0219118
-0.86938
0.864725
0.017953
-0.0141476
-0.700328
0.696523
0.0108784
-0.00774083
-0.567897
0.56476
0.00521503
-0.00266453
-0.463006
0.460455
0.000683726
0.000883198
-0.378674
0.377108
-0.00204738
0.00283059
-0.309664
0.308881
-0.00308664
0.00249335
-0.231256
0.23185
-0.0013334
-0.0588603
0.0601937
-0.131213
0.130114
0.00109945
-0.000403252
-0.00170711
-0.503828
0.505938
0.00511152
-0.00873822
-0.598383
0.60201
0.0130655
-0.0172491
-0.695673
0.699856
0.021945
-0.0263604
-0.804289
0.808704
0.0316117
-0.0359732
-0.923698
0.92806
0.0409168
-0.0449881
-1.05257
1.05664
0.0492095
-0.0523922
-1.18905
1.19223
0.0547055
-0.0553516
-1.33108
1.33172
0.054452
-0.0516595
-1.4767
1.4739
0.047449
-0.0416802
-1.37093
1.36517
0.0364099
-0.0307447
-1.07812
1.07246
0.0260402
-0.0212138
-0.859749
0.854922
0.0173224
-0.0134613
-0.692515
0.688654
0.0103066
-0.0072635
-0.561527
0.558484
0.0047743
-0.00257349
-0.45777
0.455569
0.000658025
0.000853607
-0.374475
0.372963
-0.00205758
0.00276053
-0.306313
0.30561
-0.002942
0.00250379
-0.229139
0.229577
-0.00128684
-0.0591937
0.0604805
-0.133259
0.132534
0.00072441
0.00060146
-0.00323953
-0.510321
0.512959
0.00656049
-0.010309
-0.605667
0.609415
0.0144928
-0.0187766
-0.704113
0.708396
0.0235778
-0.0283692
-0.813228
0.81802
0.0333288
-0.0380914
-0.932764
0.937526
0.0432642
-0.047356
-1.06118
1.06528
0.0518648
-0.0551148
-1.19522
1.19847
0.0574932
-0.0584633
-1.33253
1.3335
0.0575653
-0.0543026
-1.47062
1.46736
0.0493097
-0.0430054
-1.35887
1.35257
0.0371786
-0.0308389
-1.06621
1.05987
0.0256152
-0.0206571
-0.849816
0.844858
0.0163166
-0.0125765
-0.684555
0.680815
0.00949686
-0.00649657
-0.55556
0.55256
0.0042869
-0.00213947
-0.45292
0.450772
0.000449671
0.0011211
-0.370819
0.369248
-0.00212346
0.00278423
-0.303333
0.302672
-0.00307855
0.00260312
-0.227331
0.227806
-0.00136948
-0.0596636
0.0610331
-0.135624
0.135107
0.000517362
0.00143215
-0.00402503
-0.517017
0.51961
0.00800346
-0.0115869
-0.613374
0.616958
0.0160887
-0.0204642
-0.712546
0.716921
0.0253872
-0.0300599
-0.822722
0.827395
0.035428
-0.0401612
-0.942455
0.947188
0.0455763
-0.0503262
-1.06991
1.07466
0.0547465
-0.0584844
-1.20177
1.20551
0.0613183
-0.0622794
-1.33419
1.33515
0.0613129
-0.0580187
-1.4637
1.4604
0.0522964
-0.0450976
-1.34527
1.33807
0.0381724
-0.0309549
-1.0529
1.04568
0.0251583
-0.0195759
-0.83924
0.833658
0.0151154
-0.0112045
-0.676612
0.672701
0.00815945
-0.00524746
-0.549581
0.546669
0.0030977
-0.00123986
-0.448507
0.446649
-0.000381909
0.00171222
-0.367369
0.366039
-0.00262236
0.00321121
-0.300672
0.300083
-0.00333231
0.00275386
-0.22598
0.226558
-0.00145851
-0.0604709
0.0619294
-0.138198
0.137959
0.000239132
0.00243692
-0.00523324
-0.523813
0.526609
0.00905841
-0.0129212
-0.620993
0.624856
0.0175036
-0.0219336
-0.721181
0.725611
0.0271869
-0.0319603
-0.832248
0.837022
0.0374679
-0.0425878
-0.952538
0.957658
0.0482195
-0.0532283
-1.07941
1.08442
0.0581566
-0.0621551
-1.20923
1.21323
0.0653534
-0.0670105
-1.33622
1.33787
0.0661708
-0.0623991
-1.45642
1.45265
0.0560931
-0.0475259
-1.32972
1.32115