/*--------------------------------*- C++ -*----------------------------------*\
  =========                 |
  \\      /  F ield         | OpenFOAM: The Open Source CFD Toolbox
   \\    /   O peration     | Website:  https://openfoam.org
    \\  /    A nd           | Version:  9
     \\/     M anipulation  |
\*---------------------------------------------------------------------------*/
FoamFile
{
    format      ascii;
    class       volVectorField;
    location    "3";
    object      U;
}
// * * * * * * * * * * * * * * * * * * * * * * * * * * * * * * * * * * * * * //

dimensions      [0 1 -1 0 0 0 0];

internalField   nonuniform List<vector> 
8800
(
(0.974627 -0.0908739 0)
(1.00731 -0.059379 0)
(1.00151 -0.0301571 0)
(1.00104 -0.0146104 0)
(1.00077 -0.00709833 0)
(1.00043 -0.00351843 0)
(1.00003 -0.00184077 0)
(0.999748 -0.0010257 0)
(0.999557 -0.000467159 0)
(0.999432 -5.04801e-05 0)
(0.999496 0.000272887 0)
(0.999665 0.000758823 0)
(0.999886 0.00140873 0)
(1.00025 0.00248074 0)
(1.00063 0.00500601 0)
(1.00092 0.010202 0)
(1.00122 0.0210824 0)
(1.00233 0.0419389 0)
(1.01241 0.080143 0)
(0.773327 0.0485965 0)
(0.38196 -0.0117507 0)
(1.04954 -0.0595935 0)
(1.08359 -0.054754 0)
(1.04929 -0.046834 0)
(1.02502 -0.0370723 0)
(1.01124 -0.0269772 0)
(1.00458 -0.0182837 0)
(1.00176 -0.011722 0)
(1.00086 -0.00684535 0)
(1.00057 -0.00271256 0)
(1.00046 0.00110097 0)
(1.00066 0.00502182 0)
(1.00114 0.00931357 0)
(1.0028 0.0148522 0)
(1.00732 0.0224794 0)
(1.01707 0.0320523 0)
(1.03587 0.0422558 0)
(1.06604 0.0512321 0)
(1.08894 0.056143 0)
(0.861279 0.0452822 0)
(0.284382 3.47825e-05 0)
(1.06742 -0.021471 0)
(1.07181 -0.0282376 0)
(1.04947 -0.0290187 0)
(1.03374 -0.026783 0)
(1.02277 -0.0228998 0)
(1.0155 -0.0178996 0)
(1.01099 -0.0124666 0)
(1.00851 -0.00689081 0)
(1.00747 -0.000974847 0)
(1.00781 0.00494419 0)
(1.00942 0.010641 0)
(1.01277 0.0160502 0)
(1.01846 0.0211048 0)
(1.02741 0.0254961 0)
(1.0406 0.0284663 0)
(1.05956 0.0294041 0)
(1.07934 0.026003 0)
(0.9865 0.0164407 0)
(0.284166 -2.49921e-05 0)
(0.281443 0.000312143 0)
(1.03011 -0.00529545 0)
(1.04838 -0.0126053 0)
(1.0405 -0.017552 0)
(1.03187 -0.0194439 0)
(1.02394 -0.0187141 0)
(1.01754 -0.0157362 0)
(1.01307 -0.0114062 0)
(1.0101 -0.0064347 0)
(1.00871 -0.000717299 0)
(1.00906 0.00507848 0)
(1.01119 0.0103193 0)
(1.01482 0.0148021 0)
(1.02013 0.0184253 0)
(1.02734 0.0202522 0)
(1.03563 0.0194416 0)
(1.04418 0.0159609 0)
(1.04785 0.00941366 0)
(0.948728 0.00199517 0)
(0.281085 -0.000304781 0)
(0.281268 -4.59856e-05 0)
(1.01737 -0.00245197 0)
(1.038 -0.0057174 0)
(1.03586 -0.00870251 0)
(1.03215 -0.0107379 0)
(1.02791 -0.0114421 0)
(1.0237 -0.0106377 0)
(1.01991 -0.00838793 0)
(1.01705 -0.00486308 0)
(1.01575 -0.000294373 0)
(1.01604 0.00448432 0)
(1.01806 0.00840288 0)
(1.02108 0.0111239 0)
(1.02506 0.0123879 0)
(1.02929 0.0121719 0)
(1.03323 0.0105278 0)
(1.03624 0.00776926 0)
(1.03484 0.00437348 0)
(0.938612 0.00128549 0)
(0.280661 5.62576e-05 0)
(0.280278 -6.88489e-06 0)
(1.01079 -0.00114805 0)
(1.03129 -0.00267106 0)
(1.03055 -0.00426915 0)
(1.02873 -0.00561754 0)
(1.02637 -0.00634489 0)
(1.02366 -0.00621634 0)
(1.02093 -0.00504981 0)
(1.01863 -0.00279039 0)
(1.01738 0.00032076 0)
(1.01754 0.00354727 0)
(1.01916 0.00598845 0)
(1.0213 0.00740318 0)
(1.0239 0.00771067 0)
(1.02636 0.0070571 0)
(1.02836 0.00569018 0)
(1.02971 0.00394533 0)
(1.02736 0.00213953 0)
(0.932886 0.000636712 0)
(0.279466 1.31636e-05 0)
(0.279803 -6.32566e-06 0)
(1.00796 -0.000591172 0)
(1.02847 -0.00131619 0)
(1.02829 -0.00210303 0)
(1.02739 -0.00282497 0)
(1.02609 -0.00329136 0)
(1.02443 -0.00330693 0)
(1.02259 -0.00266777 0)
(1.02089 -0.00126024 0)
(1.0198 0.000806452 0)
(1.01978 0.00295392 0)
(1.02078 0.00439899 0)
(1.02215 0.0050222 0)
(1.02366 0.00492882 0)
(1.02497 0.00428841 0)
(1.02595 0.00333512 0)
(1.02654 0.00227589 0)
(1.02382 0.00125978 0)
(0.930023 0.000419856 0)
(0.27881 1.86877e-05 0)
(0.279599 1.61616e-06 0)
(1.00654 -0.000242635 0)
(1.02703 -0.000578057 0)
(1.02706 -0.000946748 0)
(1.02654 -0.00128461 0)
(1.02575 -0.00149755 0)
(1.02469 -0.0014584 0)
(1.02341 -0.00102427 0)
(1.02213 -9.37366e-05 0)
(1.02116 0.0012869 0)
(1.02094 0.00265873 0)
(1.02143 0.00347826 0)
(1.0222 0.003689 0)
(1.02302 0.00343786 0)
(1.02371 0.00288542 0)
(1.02421 0.00219367 0)
(1.02449 0.00148624 0)
(1.02164 0.000830737 0)
(0.92819 0.000290909 0)
(0.27831 1.48838e-05 0)
(0.279594 4.24958e-06 0)
(1.00598 -3.05114e-05 0)
(1.02644 -0.000136434 0)
(1.02658 -0.000248681 0)
(1.02624 -0.000333247 0)
(1.02572 -0.000339528 0)
(1.02498 -0.000196176 0)
(1.02404 0.000184936 0)
(1.023 0.000863775 0)
(1.02209 0.00180182 0)
(1.02165 0.00264956 0)
(1.02173 0.00305635 0)
(1.02205 0.00301632 0)
(1.02242 0.0026864 0)
(1.02274 0.00219253 0)
(1.02296 0.00164411 0)
(1.02308 0.0011113 0)
(1.02016 0.000631417 0)
(0.9269 0.000232689 0)
(0.277914 1.43356e-05 0)
(0.27972 1.107e-05 0)
(1.00595 0.000100865 0)
(1.02638 0.000155217 0)
(1.02657 0.000225182 0)
(1.02632 0.000328246 0)
(1.02592 0.000491836 0)
(1.02534 0.000754443 0)
(1.02456 0.00115867 0)
(1.02364 0.00172509 0)
(1.02269 0.00239534 0)
(1.02203 0.00289364 0)
(1.02176 0.00302892 0)
(1.02173 0.00280633 0)
(1.0218 0.00240302 0)
(1.02188 0.00191773 0)
(1.02194 0.00142382 0)
(1.02196 0.000963169 0)
(1.01899 0.000557923 0)
(0.925843 0.000215524 0)
(0.27755 1.51811e-05 0)
(0.279964 1.48103e-05 0)
(1.0063 0.000231755 0)
(1.02672 0.000405422 0)
(1.02692 0.000611917 0)
(1.0267 0.000865966 0)
(1.02635 0.00118023 0)
(1.02582 0.00157021 0)
(1.02509 0.00204612 0)
(1.02416 0.00258965 0)
(1.02309 0.00311223 0)
(1.02218 0.0033741 0)
(1.02161 0.00325862 0)
(1.02129 0.00292106 0)
(1.02112 0.00243936 0)
(1.02103 0.00191727 0)
(1.02098 0.00141419 0)
(1.02093 0.000958401 0)
(1.01793 0.000562152 0)
(0.924844 0.000225229 0)
(0.277171 1.73988e-05 0)
(0.280325 2.03363e-05 0)
(1.00699 0.00034745 0)
(1.02738 0.000634552 0)
(1.02758 0.000973169 0)
(1.02736 0.00137234 0)
(1.027 0.00183922 0)
(1.02646 0.00237339 0)
(1.02568 0.00295906 0)
(1.02465 0.00354419 0)
(1.02337 0.00400313 0)
(1.02216 0.00410733 0)
(1.02128 0.0038304 0)
(1.0207 0.00332447 0)
(1.02034 0.0027272 0)
(1.02011 0.00212348 0)
(1.01997 0.00156012 0)
(1.01987 0.00106072 0)
(1.01684 0.000628412 0)
(0.923779 0.000258856 0)
(0.276738 2.11285e-05 0)
(0.280815 2.66706e-05 0)
(1.00801 0.000476227 0)
(1.02837 0.000882488 0)
(1.02855 0.00135852 0)
(1.02831 0.00191477 0)
(1.0279 0.0025511 0)
(1.02729 0.00325621 0)
(1.02639 0.0039913 0)
(1.02515 0.00467131 0)
(1.02358 0.00512557 0)
(1.022 0.00511086 0)
(1.02079 0.00466299 0)
(1.01995 0.00398865 0)
(1.01939 0.00324063 0)
(1.01903 0.00250901 0)
(1.01881 0.00183928 0)
(1.01865 0.00125112 0)
(1.01559 0.000744697 0)
(0.922546 0.000310146 0)
(0.276221 2.59639e-05 0)
(0.281462 3.47564e-05 0)
(1.00939 0.000630228 0)
(1.02972 0.00117268 0)
(1.02987 0.00180938 0)
(1.02958 0.00254793 0)
(1.02909 0.00338627 0)
(1.02835 0.00430034 0)
(1.02725 0.00523119 0)
(1.02573 0.0060553 0)
(1.02376 0.00655013 0)
(1.02172 0.00643562 0)
(1.02011 0.00580414 0)
(1.01898 0.00492559 0)
(1.01821 0.00398127 0)
(1.01771 0.00307326 0)
(1.0174 0.00225125 0)
(1.0172 0.00153169 0)
(1.0141 0.000915322 0)
(0.921057 0.000383678 0)
(0.275582 3.26804e-05 0)
(0.282304 4.50928e-05 0)
(1.01122 0.000821262 0)
(1.0315 0.00153118 0)
(1.03161 0.00236234 0)
(1.03124 0.00332502 0)
(1.03064 0.00441204 0)
(1.02971 0.00558892 0)
(1.02834 0.0067711 0)
(1.02643 0.00779214 0)
(1.02392 0.00836478 0)
(1.0213 0.00815329 0)
(1.01922 0.00730703 0)
(1.01774 0.00617362 0)
(1.01673 0.00497605 0)
(1.01608 0.00383483 0)
(1.01567 0.00280667 0)
(1.0154 0.00190942 0)
(1.01227 0.00114258 0)
(0.919209 0.000480537 0)
(0.274783 4.09356e-05 0)
(0.283396 5.8478e-05 0)
(1.0136 0.00106383 0)
(1.03382 0.00198385 0)
(1.03387 0.00306043 0)
(1.0334 0.00430493 0)
(1.03263 0.00570613 0)
(1.03145 0.00721488 0)
(1.02971 0.00871786 0)
(1.02727 0.0099965 0)
(1.02408 0.0106798 0)
(1.02074 0.0103586 0)
(1.01807 0.00924806 0)
(1.01616 0.00779338 0)
(1.01486 0.00627091 0)
(1.01401 0.00482839 0)
(1.01348 0.00353198 0)
(1.01314 0.00240424 0)
(1.00996 0.00143876 0)
(0.916888 0.000605865 0)
(0.273777 5.17077e-05 0)
(0.284813 7.61792e-05 0)
(1.01667 0.00137721 0)
(1.03682 0.00256592 0)
(1.03679 0.00395621 0)
(1.03618 0.00556022 0)
(1.0352 0.00736163 0)
(1.03367 0.00929347 0)
(1.03144 0.0112044 0)
(1.02832 0.0128096 0)
(1.02424 0.0136344 0)
(1.01998 0.0131762 0)
(1.01657 0.0117314 0)
(1.01414 0.00986802 0)
(1.01249 0.0079305 0)
(1.01141 0.00610103 0)
(1.01073 0.00446049 0)
(1.01031 0.00303555 0)
(1.00706 0.0018161 0)
(0.913961 0.000764685 0)
(0.272509 6.50849e-05 0)
(0.286657 9.97664e-05 0)
(1.02064 0.00178617 0)
(1.04069 0.00332272 0)
(1.04055 0.0051176 0)
(1.03976 0.00718541 0)
(1.03848 0.00950058 0)
(1.03651 0.0119719 0)
(1.03363 0.0143988 0)
(1.02962 0.0164112 0)
(1.02441 0.0174047 0)
(1.01898 0.0167632 0)
(1.01466 0.0148889 0)
(1.01157 0.0125042 0)
(1.00947 0.0100397 0)
(1.0081 0.00771909 0)
(1.00725 0.00564209 0)
(1.00672 0.00383748 0)
(1.00339 0.00229585 0)
(0.910263 0.000965668 0)
(0.270911 8.20299e-05 0)
(0.289067 0.000131673 0)
(1.02579 0.00232581 0)
(1.0457 0.00431701 0)
(1.04542 0.00663916 0)
(1.04438 0.009308 0)
(1.0427 0.012285 0)
(1.04013 0.0154449 0)
(1.03639 0.0185207 0)
(1.03123 0.0210314 0)
(1.02456 0.0222117 0)
(1.01767 0.0213158 0)
(1.01219 0.0188881 0)
(1.0083 0.0158403 0)
(1.00565 0.0127069 0)
(1.00392 0.00976452 0)
(1.00284 0.00713409 0)
(1.00217 0.00485011 0)
(0.998751 0.00289997 0)
(0.905589 0.0012179 0)
(0.268896 0.000102704 0)
(0.292244 0.000175846 0)
(1.03247 0.00304854 0)
(1.0522 0.00564011 0)
(1.05171 0.00865435 0)
(1.05033 0.0121078 0)
(1.04811 0.0159411 0)
(1.04473 0.0199781 0)
(1.03985 0.0238606 0)
(1.03319 0.0269656 0)
(1.02466 0.0283326 0)
(1.01593 0.0270768 0)
(1.00903 0.0239329 0)
(1.00413 0.0200458 0)
(1.0008 0.0160697 0)
(0.998619 0.012344 0)
(0.997257 0.00901596 0)
(0.996426 0.00612875 0)
(0.992883 0.00366222 0)
(0.899683 0.00153637 0)
(0.266363 0.000129031 0)
(0.296478 0.000238683 0)
(1.04121 0.00403332 0)
(1.06068 0.0074305 0)
(1.05989 0.0113641 0)
(1.05803 0.0158502 0)
(1.05505 0.0207916 0)
(1.05056 0.025939 0)
(1.04416 0.030807 0)
(1.03554 0.0345925 0)
(1.02466 0.0361075 0)
(1.01364 0.0343365 0)
(1.00499 0.030271 0)
(0.998849 0.0253273 0)
(0.994663 0.0202982 0)
(0.991922 0.0155929 0)
(0.990205 0.0113894 0)
(0.989162 0.00774146 0)
(0.985463 0.00462418 0)
(0.892223 0.0019371 0)
(0.263176 0.00016173 0)
(0.302215 0.000331697 0)
(1.05271 0.00541783 0)
(1.0718 0.00991688 0)
(1.07058 0.0150866 0)
(1.068 0.0209389 0)
(1.06393 0.0273163 0)
(1.05789 0.0338509 0)
(1.04944 0.0398844 0)
(1.03826 0.0443925 0)
(1.02443 0.0459442 0)
(1.01062 0.0434351 0)
(0.999834 0.0381958 0)
(0.992169 0.0319427 0)
(0.986925 0.0256116 0)
(0.983474 0.0196884 0)
(0.981303 0.0143925 0)
(0.979987 0.0097883 0)
(0.976087 0.00584718 0)
(0.882798 0.00244593 0)
(0.259165 0.000203329 0)
(0.310198 0.00048037 0)
(1.06797 0.00747532 0)
(1.08647 0.0135266 0)
(1.08458 0.020373 0)
(1.08091 0.0280352 0)
(1.07521 0.0362527 0)
(1.06695 0.0444712 0)
(1.05569 0.0517952 0)
(1.04122 0.0569585 0)
(1.02375 0.0583117 0)
(1.0066 0.054754 0)
(0.993274 0.0480433 0)
(0.98377 0.0402037 0)
(0.977209 0.0322983 0)
(0.972847 0.0248872 0)
(0.97008 0.018235 0)
(0.968404 0.0124293 0)
(0.964242 0.00743905 0)
(0.870879 0.00311289 0)
(0.254093 0.000259054 0)
(0.32185 0.000756302 0)
(1.08846 0.010877 0)
(1.10611 0.0191438 0)
(1.10308 0.028224 0)
(1.09756 0.0382427 0)
(1.08929 0.0487506 0)
(1.07778 0.0588763 0)
(1.06271 0.0674432 0)
(1.04406 0.0729834 0)
(1.02223 0.0737126 0)
(1.00121 0.0686864 0)
(0.984968 0.0601794 0)
(0.97329 0.0504881 0)
(0.965099 0.0407513 0)
(0.959542 0.0315824 0)
(0.955957 0.0232918 0)
(0.953778 0.0159994 0)
(0.949266 0.00965971 0)
(0.85575 0.00407456 0)
(0.247582 0.000343562 0)
(0.340147 0.00137991 0)
(1.11698 0.0172401 0)
(1.13329 0.0284924 0)
(1.12785 0.040405 0)
(1.11891 0.053397 0)
(1.10641 0.0665411 0)
(1.09014 0.0785 0)
(1.07001 0.0878933 0)
(1.04622 0.0931866 0)
(1.01936 0.0926245 0)
(0.994066 0.0856016 0)
(0.974588 0.0749766 0)
(0.960424 0.0632417 0)
(0.950239 0.0515225 0)
(0.943088 0.0404336 0)
(0.938283 0.0302977 0)
(0.935268 0.0212718 0)
(0.930193 0.0132378 0)
(0.836417 0.00580646 0)
(0.238977 0.000513998 0)
(0.369053 0.00303941 0)
(1.15888 0.030961 0)
(1.17183 0.045268 0)
(1.16086 0.0605751 0)
(1.14566 0.0769158 0)
(1.12661 0.0923157 0)
(1.10375 0.105202 0)
(1.0772 0.114313 0)
(1.04738 0.118256 0)
(1.01495 0.115443 0)
(0.985109 0.105804 0)
(0.962205 0.0927917 0)
(0.945296 0.0789697 0)
(0.932724 0.0653442 0)
(0.923418 0.0524663 0)
(0.91664 0.0406104 0)
(0.911889 0.0299415 0)
(0.905406 0.0200101 0)
(0.811198 0.00939865 0)
(0.227934 0.000857652 0)
(0.413026 0.0139039 4.43775e-20)
(1.21721 0.0612808 4.03629e-20)
(1.21997 0.0780206 -1.43294e-20)
(1.19959 0.0964316 0)
(1.17561 0.11421 -3.59745e-34)
(1.14825 0.129492 5.22733e-21)
(1.11751 0.141175 -9.22965e-21)
(1.08366 0.148285 0)
(1.04714 0.149595 1.85104e-34)
(1.00859 0.143677 -1.09515e-20)
(0.973703 0.131024 0)
(0.946879 0.115616 -1.27679e-20)
(0.926635 0.0999649 -3.75053e-20)
(0.910946 0.0849213 -1.76879e-20)
(0.898493 0.0709696 -5.30433e-21)
(0.88839 0.0584573 -3.15547e-21)
(0.879995 0.0475261 0)
(0.870141 0.0380033 2.23613e-21)
(0.776885 0.0264104 2.63876e-21)
(0.216167 0.00677631 4.79206e-20)
(0.43162 0.0390151 3.11679e-20)
(1.27067 0.117752 4.93779e-22)
(1.26447 0.132682 3.86759e-21)
(1.23464 0.14856 0)
(1.20183 0.163763 -1.84369e-20)
(1.16634 0.176632 -2.07806e-20)
(1.12812 0.185978 -9.36337e-21)
(1.08722 0.190632 -3.27236e-20)
(1.0439 0.189291 0)
(0.998617 0.180518 4.64615e-20)
(0.957601 0.165382 4.56077e-20)
(0.925672 0.148337 1.34157e-20)
(0.901017 0.131825 4.85719e-20)
(0.881258 0.116583 6.81775e-20)
(0.864859 0.103003 0)
(0.850787 0.0915067 9.68089e-20)
(0.838355 0.0823016 1.40193e-19)
(0.825135 0.0752944 1.56361e-19)
(0.737681 0.063182 -1.80128e-19)
(0.21011 0.0191225 -3.31857e-21)
(0.421197 0.0634466 0)
(1.30582 0.191287 6.37905e-21)
(1.29621 0.201372 0)
(1.26017 0.211826 -2.52134e-20)
(1.22093 0.222201 0)
(1.17896 0.230766 -4.14815e-20)
(1.13432 0.236187 1.92882e-20)
(1.08717 0.237114 -6.64501e-20)
(1.03781 0.232192 -1.181e-21)
(0.98671 0.220018 2.40271e-20)
(0.940713 0.202211 9.89341e-20)
(0.904941 0.183687 1.04174e-23)
(0.877258 0.166798 -3.4933e-20)
(0.855095 0.152005 -6.30803e-20)
(0.836884 0.139459 7.51463e-20)
(0.82162 0.129286 -1.33156e-19)
(0.808541 0.121626 -1.77295e-20)
(0.795089 0.116206 0)
(0.713929 0.101629 1.06079e-21)
(0.20869 0.030665 0)
(0.415671 0.0862265 7.85539e-20)
(1.32339 0.265544 -4.34318e-20)
(1.31357 0.273336 -3.40004e-20)
(1.27483 0.279109 1.235e-20)
(1.23195 0.284581 -2.0856e-20)
(1.18565 0.288401 8.80259e-20)
(1.1362 0.289368 4.05596e-20)
(1.08397 0.286061 0)
(1.0295 0.277075 -1.22212e-19)
(0.973431 0.261027 0)
(0.923344 0.24022 -5.15056e-20)
(0.884735 0.219996 -6.25971e-20)
(0.855197 0.202421 -3.73309e-20)
(0.83187 0.187578 -4.51422e-20)
(0.813037 0.175344 0)
(0.797537 0.1656 0)
(0.784526 0.15828 -1.14131e-19)
(0.771327 0.153095 2.25071e-20)
(0.693421 0.135588 -1.34228e-20)
(0.205147 0.0410995 -1.56623e-20)
(0.413231 0.107737 -3.7944e-20)
(1.33205 0.337344 0)
(1.32188 0.343675 7.83349e-20)
(1.28132 0.345706 3.72285e-20)
(1.23598 0.347145 4.83845e-20)
(1.18658 0.346832 0)
(1.13343 0.343566 4.08129e-20)
(1.07709 0.336 7.41524e-20)
(1.01834 0.322707 6.31201e-20)
(0.958187 0.30242 1.1054e-19)
(0.904975 0.278182 0)
(0.864479 0.255839 -1.3227e-19)
(0.833908 0.237123 -7.85052e-20)
(0.810091 0.221776 -4.58153e-20)
(0.791111 0.209357 2.81068e-19)
(0.775702 0.199511 3.34383e-20)
(0.762902 0.192118 1.59719e-19)
(0.749998 0.186736 -7.64859e-19)
(0.675008 0.166272 4.56015e-19)
(0.20185 0.0506717 -5.50589e-19)
(0.411319 0.128155 -2.60575e-20)
(1.33532 0.405838 9.51056e-21)
(1.32437 0.411537 -1.03884e-20)
(1.28243 0.410692 -4.32497e-20)
(1.23518 0.408785 -4.45637e-20)
(1.18326 0.404828 1.68129e-21)
(1.12704 0.397666 -4.44207e-20)
(1.06721 0.38598 7.78882e-20)
(1.00479 0.368287 -1.35609e-19)
(0.941193 0.343443 0)
(0.885577 0.315319 -6.0349e-20)
(0.843899 0.290405 -4.79078e-22)
(0.812896 0.270159 -8.38709e-20)
(0.789035 0.25392 0)
(0.770223 0.240988 -5.94878e-20)
(0.7551 0.230763 -1.40741e-19)
(0.742655 0.223015 3.80374e-19)
(0.730119 0.217187 -3.78653e-19)
(0.657706 0.194035 5.39409e-19)
(0.198619 0.0595062 -5.6145e-19)
(0.40996 0.147666 -1.00842e-21)
(1.33493 0.471267 -7.74325e-21)
(1.32284 0.476556 -3.72292e-20)
(1.27965 0.473476 2.01402e-20)
(1.23077 0.468822 -2.38316e-20)
(1.17668 0.461727 0)
(1.11777 0.451056 -4.34909e-20)
(1.05479 0.435401 -8.27219e-20)
(0.989053 0.41329 -7.12516e-20)
(0.92244 0.38359 0)
(0.864987 0.35111 -6.16534e-20)
(0.822731 0.323172 -7.34811e-20)
(0.791811 0.301052 8.83277e-20)
(0.768283 0.283665 -5.3621e-20)
(0.749903 0.269977 -2.48321e-19)
(0.735233 0.259281 1.48523e-19)
(0.723205 0.251056 4.49877e-20)
(0.711121 0.244685 0)
(0.641141 0.219078 -5.01716e-19)
(0.195616 0.0677228 -1.81923e-20)
(0.409216 0.16661 -1.98348e-21)
(1.3321 0.533706 6.87472e-21)
(1.31861 0.538889 2.02765e-20)
(1.27425 0.53397 7.32677e-20)
(1.2238 0.52703 -9.57969e-20)
(1.1677 0.517227 9.76243e-20)
(1.10623 0.503405 9.57171e-20)
(1.04027 0.483992 -1.3361e-19)
(0.9714 0.457441 4.18105e-20)
(0.901992 0.422561 -2.6654e-19)
(0.84311 0.385178 -6.73399e-20)
(0.80083 0.353785 0)
(0.77046 0.329491 9.25221e-20)
(0.747659 0.310787 1.08402e-19)
(0.72995 0.296312 1.29781e-19)
(0.715864 0.285012 -1.546e-19)
(0.704381 0.276346 -4.55232e-20)
(0.692777 0.269431 5.50922e-20)
(0.625186 0.241616 0)
(0.1931 0.0754917 -3.8064e-20)
(0.408932 0.185064 8.86531e-21)
(1.32771 0.593352 -2.04453e-20)
(1.31259 0.598607 -2.30917e-20)
(1.26704 0.592176 5.0749e-20)
(1.21506 0.583338 -4.80823e-20)
(1.15695 0.57122 -2.73123e-21)
(1.09302 0.554533 -1.06056e-19)
(1.02411 0.531602 -4.85701e-20)
(0.952052 0.500598 -1.2445e-19)
(0.879877 0.460185 2.60999e-22)
(0.819837 0.417317 -2.0886e-19)
(0.77804 0.38193 1.65337e-19)
(0.748797 0.355195 -9.6394e-20)
(0.727161 0.335086 1.13643e-19)
(0.710403 0.319813 0)
(0.697072 0.308048 -7.89726e-20)
(0.686158 0.299031 -2.04144e-21)
(0.675092 0.291647 -2.24776e-19)
(0.610017 0.262014 -3.39304e-20)
(0.191119 0.082926 0)
(0.409145 0.202856 0)
(1.32236 0.650343 -2.7021e-20)
(1.30542 0.655825 -4.21716e-20)
(1.25865 0.648146 -5.25517e-20)
(1.20514 0.63774 -5.78404e-20)
(1.14502 0.623621 0)
(1.07855 0.604395 -5.19141e-20)
(1.00666 0.5782 2.0395e-22)
(0.931244 0.542799 2.68743e-19)
(0.8561 0.496517 -3.73152e-20)
(0.795049 0.4474 -1.48447e-19)
(0.754263 0.40738 8.62888e-20)
(0.726805 0.37794 5.72424e-22)
(0.706852 0.35641 1.16504e-19)
(0.691435 0.340482 7.06646e-20)
(0.679038 0.328375 -1.66325e-19)
(0.668829 0.319145 1.95906e-19)
(0.658306 0.311491 5.75398e-20)
(0.595764 0.28038 2.42598e-19)
(0.189818 0.0901479 -6.50583e-19)
(0.409949 0.220437 -1.92926e-21)
(1.31647 0.704873 -8.92057e-21)
(1.29762 0.710636 1.44356e-20)
(1.24957 0.701962 5.33738e-20)
(1.19448 0.690255 0)
(1.13232 0.674455 -5.54703e-20)
(1.0633 0.653014 1.76968e-19)
(0.98824 0.623807 1.1264e-19)
(0.909225 0.584129 0)
(0.83074 0.531621 -5.28099e-19)
(0.768529 0.475397 3.90816e-19)
(0.729293 0.429907 0)
(0.704488 0.397342 1.02911e-19)
(0.686984 0.374481 1.19661e-21)
(0.673335 0.358126 -2.11578e-19)
(0.662132 0.346053 8.43671e-20)
(0.652652 0.336883 0)
(0.642712 0.329204 2.9598e-19)
(0.582819 0.297211 0)
(0.18959 0.0974537 -2.92087e-19)
(0.411195 0.237872 3.2205e-21)
(1.31032 0.757181 -3.52249e-21)
(1.28954 0.763188 1.78953e-20)
(1.24016 0.753687 0)
(1.18341 0.740907 -6.29786e-20)
(1.11923 0.723686 0)
(1.0476 0.70035 -1.83842e-19)
(0.969241 0.668464 -5.63853e-20)
(0.886276 0.624743 5.07668e-20)
(0.803789 0.565809 -2.61956e-19)
(0.740032 0.501383 4.14876e-20)
(0.702921 0.449139 0)
(0.6819 0.412929 -2.08447e-19)
(0.667854 0.388893 -1.37642e-21)
(0.656611 0.372657 0)
(0.646838 0.361087 1.07409e-21)
(0.638194 0.352429 2.51691e-19)
(0.628785 0.345075 -2.42207e-19)
(0.571667 0.312836 7.18603e-20)
(0.190378 0.105008 0)
(0.412465 0.255002 0)
(1.30408 0.807432 -6.40278e-22)
(1.28144 0.813575 -1.31667e-20)
(1.23071 0.803387 -2.52186e-21)
(1.17229 0.789701 -2.85589e-20)
(1.10605 0.771312 -1.36744e-19)
(1.03177 0.746398 6.98324e-20)
(0.949934 0.712233 -6.53097e-20)
(0.862591 0.664825 2.25058e-19)
(0.775345 0.59934 -4.2499e-19)
(0.709288 0.525483 1.67331e-21)
(0.674706 0.464882 -9.64182e-20)
(0.658955 0.424202 3.18302e-19)
(0.649844 0.399191 2.36969e-21)
(0.64189 0.383782 -1.41501e-19)
(0.633868 0.373527 -2.58453e-19)
(0.626025 0.366034 0)
(0.617067 0.359515 0)
(0.562874 0.327806 7.41244e-20)
(0.192399 0.113067 -4.21424e-20)
(0.414324 0.27216 8.20248e-21)
(1.29785 0.855635 2.31018e-21)
(1.27341 0.861858 1.5956e-20)
(1.22137 0.851094 0)
(1.16134 0.83665 -5.75244e-22)
(1.09306 0.817314 -1.40628e-19)
(1.01613 0.791123 1.80732e-19)
(0.930716 0.755144 2.72606e-19)
(0.838579 0.704533 3.03536e-19)
(0.745498 0.632593 -3.5842e-19)
(0.675829 0.548065 -3.277e-19)
(0.644043 0.476834 2.51885e-19)
(0.635505 0.430261 0)
(0.633654 0.404585 -5.79322e-20)
(0.630138 0.391307 -1.43294e-19)
(0.624072 0.383512 -1.70084e-19)
(0.616936 0.377998 -2.05183e-19)
(0.608172 0.372946 6.02685e-20)
(0.557031 0.34263 -3.71598e-20)
(0.195763 0.121893 -1.22981e-21)
(0.416126 0.288903 0)
(1.29176 0.901883 0)
(1.26553 0.908135 1.27501e-21)
(1.21226 0.896848 0)
(1.1507 0.881773 9.7031e-20)
(1.08045 0.861687 1.09139e-19)
(1.00095 0.834537 0)
(0.911888 0.797189 3.53222e-20)
(0.814552 0.744038 5.28909e-19)
(0.714424 0.666093 -8.31852e-19)
(0.639331 0.569679 0)
(0.609984 0.484649 -1.53904e-19)
(0.611272 0.429856 2.22013e-21)
(0.620176 0.403992 5.41403e-22)
(0.622653 0.394866 1.33821e-19)
(0.61848 0.391308 -2.47429e-21)
(0.611424 0.389132 -4.09252e-19)
(0.602252 0.386253 1.24343e-19)
(0.554429 0.358124 3.64908e-20)
(0.200204 0.131491 0)
(0.417815 0.305225 -4.6147e-20)
(1.28578 0.946186 -5.67976e-21)
(1.25784 0.952384 2.40596e-20)
(1.20335 0.94065 -1.02942e-19)
(1.14042 0.925067 1.68938e-19)
(1.06837 0.904394 0)
(0.986442 0.876653 1.25574e-19)
(0.893809 0.838338 -7.9398e-20)
(0.790918 0.783373 1.85822e-21)
(0.682474 0.700233 6.01451e-20)
(0.59942 0.59111 4.33432e-19)
(0.571162 0.488242 -5.5244e-20)
(0.585565 0.421012 -1.6202e-19)
(0.610325 0.395663 -4.57961e-20)
(0.621723 0.394129 6.34319e-20)
(0.619394 0.398503 -3.69214e-21)
(0.61115 0.401283 1.02293e-19)
(0.600421 0.400927 -2.49942e-19)
(0.554259 0.375213 2.99999e-19)
(0.204479 0.141444 4.50597e-20)
(0.419043 0.320949 1.92753e-20)
(1.27999 0.988606 -3.21745e-21)
(1.25043 0.994641 5.55078e-21)
(1.19476 0.982467 -4.93877e-20)
(1.13051 0.966464 -3.17525e-20)
(1.05685 0.945391 -2.11632e-19)
(0.972777 0.917286 4.11943e-20)
(0.876734 0.878614 -3.42997e-19)
(0.768195 0.822587 -6.27127e-19)
(0.650187 0.735431 -5.25692e-19)
(0.555831 0.61341 0)
(0.525751 0.487817 -2.16264e-19)
(0.556992 0.401652 1.99156e-19)
(0.606361 0.37624 0)
(0.632183 0.389902 -1.20378e-19)
(0.630321 0.407781 7.34043e-20)
(0.616015 0.418361 -9.79412e-20)
(0.597975 0.419598 -1.29619e-19)
(0.552437 0.395007 -2.35837e-19)
(0.205596 0.150293 -1.87042e-19)
(0.420778 0.336419 -2.3007e-20)
(1.27432 1.02914 3.37378e-21)
(1.24329 1.03493 -6.7148e-21)
(1.18658 1.02232 -6.02334e-20)
(1.12111 1.0059 7.39005e-20)
(1.04595 0.984574 -1.34048e-19)
(0.959942 0.956384 1.37658e-19)
(0.860816 0.917861 -3.69354e-19)
(0.746788 0.861783 -3.87136e-19)
(0.618319 0.772083 5.83513e-19)
(0.508699 0.637909 9.92146e-19)
(0.471415 0.484321 0)
(0.521909 0.367835 0)
(0.611153 0.339335 -4.01596e-20)
(0.662557 0.379879 0)
(0.656863 0.422538 1.45731e-19)
(0.626187 0.446372 1.99176e-19)
(0.594118 0.44672 0)
(0.546609 0.415785 0)
(0.19864 0.154904 2.04047e-19)
(0.421978 0.351024 2.91177e-20)
(1.26872 1.06778 1.64307e-20)
(1.23635 1.07324 -4.43832e-21)
(1.17874 1.0602 4.60097e-20)
(1.11228 1.04345 7.57395e-20)
(1.03583 1.0219 1.61443e-19)
(0.947981 0.993847 -1.98897e-19)
(0.846083 0.955883 -5.51444e-21)
(0.726956 0.900792 -2.99171e-21)
(0.587711 0.810522 8.42622e-21)
(0.45872 0.666153 5.23798e-19)
(0.40553 0.479771 0)
(0.474281 0.315123 1.21581e-19)
(0.627872 0.273104 3.45229e-20)
(0.727183 0.362915 6.03736e-20)
(0.713694 0.45412 4.75096e-20)
(0.645713 0.490966 -1.13512e-19)
(0.590674 0.485444 -7.94325e-20)
(0.530504 0.438584 0)
(0.176608 0.148128 2.36701e-19)
(0.423644 0.365808 -7.07543e-20)
(1.26323 1.10461 0)
(1.22962 1.10959 1.4692e-21)
(1.17124 1.09607 3.50457e-20)
(1.10396 1.079 -7.53403e-20)
(1.02645 1.0574 -2.1218e-19)
(0.937143 1.02962 4.20924e-19)
(0.832645 0.992551 -2.48218e-20)
(0.708796 0.93925 0)
(0.558961 0.850927 -7.03004e-19)
(0.407403 0.699759 -1.21856e-18)
(0.325925 0.477839 3.53817e-20)
(0.403731 0.238524 6.03283e-20)
(0.661068 0.1541 0)
(0.853054 0.333631 -1.06118e-19)
(0.790301 0.561196 0)
(0.620965 0.623032 0)
(0.527784 0.573927 -9.93288e-20)
(0.464128 0.455851 0)
(0.150112 0.122031 7.01402e-20)
(0.424731 0.379637 -8.30165e-20)
(1.25771 1.13976 0)
(1.22302 1.14405 9.70608e-21)
(1.1641 1.1301 0)
(1.09615 1.11279 3.66749e-20)
(1.01773 1.09122 0)
(0.92735 1.06398 2.47491e-20)
(0.820694 1.02818 5.66783e-20)
(0.692427 0.977536 5.27582e-20)
(0.532351 0.893512 -8.06238e-19)
(0.35593 0.741206 4.12577e-20)
(0.229869 0.484258 2.49186e-19)
(0.29085 0.130294 5.22439e-21)
(0.701712 -0.0818315 -3.96456e-20)
(1.12577 0.208685 -3.03119e-19)
(1.00911 0.601761 0)
(0.686896 0.756806 2.63014e-19)
(0.439987 0.677069 -2.03531e-19)
(0.214342 0.447779 2.69181e-19)
(-0.0505818 0.661004 -3.57578e-19)
(0.425941 0.393285 7.24121e-20)
(1.25197 1.17351 7.67002e-20)
(1.21644 1.1769 0)
(1.15721 1.16268 3.33393e-21)
(1.08872 1.14543 -8.88667e-20)
(1.0095 1.12418 3.64686e-19)
(0.918243 1.09779 1.65157e-19)
(0.809832 1.06393 0)
(0.677602 1.01707 3.72446e-19)
(0.507195 0.940222 -4.54387e-20)
(0.303232 0.795504 0)
(0.112013 0.510629 0)
(0.0828836 -0.00536729 -7.7588e-20)
(0.561473 -0.266525 3.64842e-19)
(1.29533 0.347585 7.19125e-19)
(1.19401 0.929989 0)
(0.728789 1.15573 1.4098e-19)
(0.26828 1.07792 -2.35953e-19)
(0.169935 2.20409 -1.34603e-19)
(0.157022 2.94683 -1.44887e-19)
(0.427134 0.405793 -5.82083e-20)
(1.24572 1.20576 -1.03648e-19)
(1.2099 1.2079 8.18199e-21)
(1.15064 1.19362 -1.53352e-20)
(1.08167 1.17659 0)
(1.0018 1.15584 2.48731e-19)
(0.910055 1.13061 2.50452e-19)
(0.800208 1.09905 -3.02151e-20)
(0.665111 1.05711 5.69443e-20)
(0.485519 0.990298 8.26031e-19)
(0.253331 0.863269 7.32455e-19)
(-0.0206111 0.583345 3.56696e-19)
(-0.27179 0.0729302 -1.8191e-19)
(0.0221289 0.152285 1.45386e-18)
(0.987207 1.11558 1.63148e-18)
(1.13044 1.77817 0)
(0.620127 1.767 0)
(0.35769 2.7216 3.42346e-20)
(0.294737 3.19559 0)
(0.233205 3.27195 1.24753e-19)
(0.431116 0.418919 0)
(1.23858 1.23613 0)
(1.20328 1.23663 0)
(1.14416 1.22264 -1.26732e-21)
(1.07475 1.20603 -7.88761e-20)
(0.994358 1.18598 1.75693e-19)
(0.902724 1.1623 1.71172e-19)
(0.791861 1.13342 -3.08599e-20)
(0.654753 1.097 5.06494e-19)
(0.468891 1.04352 6.15768e-21)
(0.211998 0.945693 1.57288e-18)
(-0.143591 0.732915 -3.16751e-20)
(-0.610838 0.438895 7.76824e-22)
(-0.686507 1.03493 -2.67811e-19)
(0.318109 2.21804 1.21536e-20)
(0.628274 2.68405 -4.41721e-20)
(0.400023 3.14581 6.08757e-19)
(0.357815 3.41852 1.19012e-19)
(0.267847 3.40562 -7.92584e-21)
(0.211876 3.38296 2.33866e-20)
(0.296374 0.345593 3.74479e-20)
(1.22989 1.26385 0)
(1.19744 1.26354 -3.00805e-20)
(1.13831 1.25037 2.53072e-20)
(1.06862 1.23441 -1.29942e-19)
(0.988031 1.21516 -1.79841e-19)
(0.896683 1.19197 -1.90432e-19)
(0.785816 1.16592 3.89082e-19)
(0.648177 1.13517 -4.34057e-19)
(0.460304 1.09591 0)
(0.195007 1.03875 8.36717e-19)
(-0.187904 0.948315 -3.74164e-19)
(-0.707367 0.91068 0)
(-1.15923 1.7791 -1.27649e-19)
(-0.32618 3.04385 -4.51762e-19)
(0.0609121 3.4866 3.20567e-19)
(0.156989 3.61178 -2.67932e-19)
(0.215919 3.5479 -1.32619e-19)
(0.187451 3.47893 -9.63099e-20)
(0.16823 3.44498 -1.63474e-19)
(0.5223 0.514099 -4.36083e-20)
(1.21251 1.28253 0)
(1.1883 1.30331 4.20276e-20)
(1.12766 1.29159 -7.17126e-21)
(1.05712 1.27668 1.1237e-19)
(0.975716 1.25879 1.63768e-19)
(0.882448 1.23843 2.45148e-19)
(0.770743 1.21644 3.09643e-20)
(0.631525 1.19461 4.55864e-19)
(0.439732 1.17751 8.3943e-19)
(0.164269 1.18025 5.27033e-20)
(-0.242553 1.24776 4.18478e-19)
(-0.772015 1.60887 4.22155e-20)
(-0.936761 2.53185 2.89744e-20)
(-0.456187 3.2612 2.03955e-19)
(-0.154833 3.48261 -2.15575e-19)
(0.0186141 3.50285 2.56931e-19)
(0.0942649 3.48134 1.2899e-19)
(0.115362 3.47489 1.18047e-19)
(0.116139 3.4731 1.35237e-20)
(0.517083 0.515477 0)
(1.2135 1.31097 2.3204e-20)
(1.18323 1.33136 -1.17118e-20)
(1.12177 1.32039 -2.302e-21)
(1.0508 1.30593 6.33769e-20)
(0.969413 1.28882 -1.53226e-19)
(0.875979 1.26945 -1.53455e-19)
(0.764717 1.24993 2.95756e-20)
(0.627277 1.23424 -4.96454e-19)
(0.439755 1.2325 -3.94436e-21)
(0.177427 1.27211 -1.71907e-18)
(-0.178904 1.419 5.67761e-20)
(-0.578423 1.83036 -5.41739e-20)
(-0.671276 2.57318 1.25471e-20)
(-0.337116 3.12533 -5.3106e-20)
(-0.0794636 3.30515 -2.1344e-20)
(0.0539297 3.38786 -4.83888e-19)
(0.114968 3.43442 -3.00173e-19)
(0.127786 3.4671 1.86047e-19)
(0.110149 3.48155 1.23171e-19)
(0.492256 0.507975 7.52176e-20)
(1.21342 1.34368 1.65384e-19)
(1.17821 1.36241 -3.31787e-20)
(1.1157 1.35139 -7.17877e-21)
(1.04435 1.33708 0)
(0.963025 1.32029 -1.84514e-19)
(0.869751 1.30169 -2.11273e-19)
(0.759908 1.28478 2.80079e-20)
(0.625386 1.27503 -5.54908e-20)
(0.446013 1.28725 -8.44211e-19)
(0.206996 1.35651 -8.40208e-19)
(-0.0848039 1.54962 -5.43237e-19)
(-0.351679 1.95427 -4.44842e-19)
(-0.37214 2.52836 1.66312e-19)
(-0.139755 2.94659 -1.53947e-19)
(0.0440159 3.16247 0)
(0.145726 3.29328 0)
(0.19434 3.40614 1.89094e-19)
(0.179643 3.47342 0)
(0.121524 3.5008 2.68418e-19)
(0.470472 0.50487 -1.26336e-19)
(1.21063 1.37949 -1.54415e-19)
(1.17209 1.39586 0)
(1.10856 1.38402 5.67554e-21)
(1.03693 1.3693 3.601e-20)
(0.955753 1.35237 -2.45613e-19)
(0.863263 1.33463 -1.30145e-19)
(0.755681 1.32023 2.27601e-20)
(0.625065 1.31508 -3.99107e-19)
(0.454465 1.33602 4.56338e-20)
(0.241557 1.42684 0)
(0.0190966 1.64132 0)
(-0.138179 2.01283 -4.53592e-19)
(-0.112714 2.46715 9.38463e-20)
(0.0620152 2.81608 -2.84974e-20)
(0.204474 3.05778 0)
(0.292526 3.2392 2.94623e-19)
(0.326337 3.36626 -4.5819e-19)
(0.307565 3.52025 -4.05917e-19)