/*--------------------------------*- C++ -*----------------------------------*\
  =========                 |
  \\      /  F ield         | OpenFOAM: The Open Source CFD Toolbox
   \\    /   O peration     | Website:  https://openfoam.org
    \\  /    A nd           | Version:  9
     \\/     M anipulation  |
\*---------------------------------------------------------------------------*/
FoamFile
{
    format      ascii;
    class       volScalarField;
    location    "73";
    object      p;
}
// * * * * * * * * * * * * * * * * * * * * * * * * * * * * * * * * * * * * * //

dimensions      [0 2 -2 0 0 0 0];

internalField   nonuniform List<scalar> 
8800
(
0.813284
0.765499
0.726814
0.697824
0.676967
0.662149
0.65157
0.644115
0.639332
0.637324
0.638645
0.64288
0.649559
0.6589
0.671697
0.689443
0.714228
0.748174
0.790728
0.84943
0.644525
0.652204
0.659686
0.662998
0.661501
0.656433
0.649961
0.643906
0.639215
0.636416
0.636191
0.638749
0.643279
0.649254
0.656044
0.662338
0.665989
0.665258
0.659846
0.651161
0.622916
0.629077
0.633208
0.636159
0.638218
0.638835
0.637748
0.635672
0.633696
0.632843
0.633865
0.636297
0.639134
0.641342
0.641969
0.640784
0.638453
0.635068
0.630512
0.626752
0.617085
0.619737
0.622494
0.624904
0.626549
0.627726
0.628489
0.628638
0.628387
0.628398
0.629217
0.630442
0.631324
0.63142
0.630833
0.629759
0.627955
0.625393
0.622996
0.621492
0.611675
0.613101
0.614886
0.616926
0.618723
0.620081
0.621095
0.621928
0.622594
0.623227
0.623954
0.624513
0.624661
0.62441
0.62374
0.622511
0.620831
0.618994
0.617692
0.61686
0.606562
0.607483
0.608731
0.610307
0.611953
0.613498
0.614812
0.61592
0.616944
0.617917
0.618695
0.619097
0.619112
0.618716
0.617867
0.616691
0.615383
0.614137
0.61332
0.612768
0.601609
0.60228
0.603248
0.604562
0.605987
0.607468
0.60894
0.61031
0.611577
0.612778
0.613703
0.614159
0.614143
0.613686
0.61292
0.612002
0.611013
0.610106
0.609528
0.609121
0.596769
0.597286
0.598076
0.599219
0.600515
0.601915
0.603399
0.604926
0.606433
0.607878
0.609007
0.609583
0.60964
0.609319
0.608765
0.608077
0.607333
0.606669
0.606242
0.605923
0.591968
0.592379
0.593042
0.594063
0.595289
0.596647
0.598136
0.599755
0.601467
0.603192
0.604582
0.605366
0.60563
0.605538
0.605215
0.604745
0.604211
0.603742
0.603427
0.603168
0.587118
0.587452
0.588027
0.588971
0.590152
0.591499
0.59303
0.594756
0.596668
0.598698
0.600427
0.601523
0.602079
0.602254
0.602171
0.601933
0.601601
0.601295
0.601065
0.600847
0.582129
0.582406
0.58292
0.583819
0.584987
0.586363
0.587974
0.58985
0.592006
0.594391
0.596544
0.598042
0.598949
0.599429
0.599611
0.599611
0.599479
0.599318
0.599156
0.598966
0.576909
0.577141
0.577617
0.578503
0.579696
0.581146
0.582881
0.584962
0.587427
0.590252
0.592925
0.594906
0.596224
0.597055
0.597535
0.597776
0.597853
0.597828
0.597723
0.597553
0.571364
0.571561
0.572017
0.572919
0.574179
0.575747
0.577662
0.580017
0.582875
0.58625
0.589552
0.592107
0.593908
0.595141
0.595958
0.596467
0.596766
0.596867
0.59681
0.596653
0.565387
0.565556
0.566011
0.566958
0.568327
0.570064
0.572226
0.574935
0.578289
0.582341
0.586405
0.589647
0.592018
0.593718
0.594919
0.59575
0.596271
0.596497
0.59648
0.596331
0.558857
0.559002
0.559471
0.560492
0.562016
0.563983
0.566469
0.569629
0.573605
0.578487
0.583471
0.587534
0.590582
0.592831
0.594473
0.595655
0.596434
0.596789
0.59681
0.596664
0.551632
0.551752
0.552249
0.553375
0.555106
0.557371
0.560272
0.564002
0.56875
0.574644
0.580739
0.585779
0.589627
0.592525
0.59469
0.596278
0.597345
0.597834
0.597889
0.597742
0.543518
0.543627
0.544163
0.545427
0.547421
0.550065
0.553494
0.557939
0.56364
0.570768
0.578197
0.584402
0.589193
0.592854
0.595645
0.597711
0.599101
0.599731
0.599817
0.599664
0.534286
0.534384
0.534981
0.536409
0.538738
0.541873
0.545969
0.551308
0.558186
0.566816
0.575844
0.583426
0.589332
0.593889
0.597422
0.600046
0.601801
0.602579
0.602692
0.602531
0.523612
0.523691
0.524375
0.526031
0.528799
0.532561
0.537496
0.543955
0.552288
0.562743
0.573681
0.582885
0.590099
0.595714
0.60009
0.603379
0.605542
0.606471
0.606608
0.606434
0.51111
0.511175
0.511961
0.513929
0.517255
0.52182
0.527829
0.535703
0.545845
0.558517
0.571719
0.58282
0.591545
0.59839
0.603754
0.607802
0.610405
0.611484
0.611635
0.611445
0.496212
0.496266
0.497195
0.49958
0.503648
0.509266
0.516671
0.526357
0.538757
0.554116
0.569985
0.583278
0.593727
0.601975
0.608481
0.613376
0.616439
0.617653
0.617807
0.617597
0.478126
0.478168
0.479313
0.482287
0.48737
0.494414
0.503677
0.515716
0.530952
0.549554
0.568526
0.584309
0.596706
0.606531
0.614284
0.620122
0.623636
0.624951
0.625092
0.624862
0.455666
0.455706
0.457203
0.461065
0.467611
0.476663
0.488474
0.503617
0.522418
0.544901
0.56743
0.585982
0.600521
0.612083
0.621189
0.627997
0.631906
0.633265
0.633372
0.633122
0.427044
0.427107
0.429201
0.434498
0.44333
0.455329
0.470733
0.489999
0.513251
0.540309
0.566831
0.588386
0.605206
0.618603
0.629157
0.636879
0.641058
0.642375
0.642426
0.64216
0.389157
0.389326
0.392653
0.400601
0.413286
0.42981
0.45034
0.475019
0.503714
0.536031
0.566907
0.591616
0.610798
0.626059
0.638067
0.646534
0.650779
0.651946
0.651922
0.651648
0.336062
0.337078
0.343706
0.357121
0.376515
0.400043
0.427649
0.459171
0.494272
0.532415
0.567856
0.595758
0.617294
0.634383
0.647696
0.656613
0.660649
0.661566
0.661465
0.661193
0.258651
0.266136
0.281491
0.305163
0.334549
0.367458
0.403709
0.443099
0.485282
0.529701
0.569988
0.601264
0.625311
0.644333
0.658824
0.667928
0.67158
0.672237
0.672087
0.671853
0.175489
0.193173
0.218048
0.252591
0.292374
0.334784
0.37971
0.427108
0.476699
0.527973
0.573871
0.609159
0.636116
0.657342
0.673036
0.681792
0.684641
0.685003
0.684877
0.684715
0.106122
0.126966
0.15969
0.20346
0.252399
0.303753
0.357085
0.412324
0.469155
0.52704
0.578214
0.617153
0.646624
0.66949
0.685531
0.693546
0.695858
0.696158
0.696086
0.695959
0.0493011
0.0718244
0.110147
0.16044
0.216606
0.275478
0.336241
0.398669
0.462291
0.526446
0.582574
0.624882
0.656562
0.680657
0.696868
0.70447
0.706527
0.706817
0.706785
0.706686
0.00203207
0.0257468
0.067907
0.123366
0.185339
0.250418
0.317556
0.386371
0.45621
0.526237
0.587067
0.632549
0.6663
0.691611
0.708164
0.715497
0.717417
0.717735
0.717743
0.717667
-0.0379583
-0.0135951
0.0314669
0.0910095
0.157866
0.228229
0.300912
0.375419
0.450947
0.526475
0.591803
0.640372
0.676195
0.702739
0.719685
0.727083
0.729055
0.729344
0.729376
0.729317
-0.072727
-0.0479563
-0.000619284
0.0622985
0.133287
0.208256
0.28587
0.36553
0.446315
0.527042
0.596714
0.648332
0.686226
0.714044
0.731621
0.739326
0.741293
0.741584
0.741615
0.741583
-0.103797
-0.0786822
-0.029495
0.0363022
0.110866
0.189882
0.27193
0.356313
0.442016
0.527714
0.601616
0.65625
0.696237
0.725424
0.74377
0.751786
0.753868
0.754141
0.754168
0.75414
-0.132169
-0.106754
-0.0559911
0.0122992
0.0900065
0.172623
0.258677
0.347415
0.437755
0.528235
0.606293
0.663932
0.706029
0.736578
0.755681
0.764068
0.766294
0.766568
0.766581
0.766566
-0.15867
-0.132917
-0.0807599
-0.0102697
0.0702517
0.156095
0.245787
0.338552
0.433269
0.528384
0.61056
0.671196
0.715349
0.747259
0.767088
0.775835
0.778212
0.778497
0.778474
0.778457
-0.183701
-0.157613
-0.104131
-0.0317868
0.0512646
0.140012
0.233012
0.329506
0.42837
0.528
0.614277
0.677911
0.724109
0.757286
0.77775
0.786799
0.789272
0.789543
0.789489
0.789461
-0.207737
-0.181229
-0.126713
-0.0524962
0.0328016
0.124162
0.220181
0.320127
0.42291
0.52693
0.617332
0.684017
0.732234
0.766594
0.78756
0.796771
0.799291
0.799539
0.799449
0.799407
-0.23092
-0.203953
-0.148499
-0.072596
0.014706
0.108418
0.207179
0.310307
0.416777
0.525073
0.619649
0.68949
0.739759
0.775182
0.796468
0.805741
0.808213
0.808424
0.808305
0.808247
-0.253408
-0.226051
-0.16957
-0.0922086
-0.00310697
0.092711
0.193939
0.299976
0.409901
0.522342
0.621151
0.69432
0.746743
0.78317
0.80461
0.813723
0.816101
0.816261
0.816113
0.816042
-0.275339
-0.247509
-0.190062
-0.111392
-0.0206901
0.0770062
0.180446
0.289122
0.402247
0.518664
0.621766
0.698504
0.75331
0.790744
0.812119
0.820871
0.823031
0.823128
0.822952
0.822872
-0.296793
-0.268382
-0.210059
-0.130168
-0.0380381
0.0613062
0.166716
0.277756
0.393805
0.513984
0.621419
0.702026
0.75956
0.798122
0.819251
0.827347
0.829128
0.829113
0.82893
0.828844
-0.317634
-0.288673
-0.229503
-0.148531
-0.0551422
0.045654
0.152783
0.265922
0.384603
0.508294
0.620019
0.704826
0.765553
0.805572
0.826365
0.833422
0.834519
0.834319
0.83414
0.834061
-0.337848
-0.308359
-0.248397
-0.166447
-0.071964
0.0300899
0.138719
0.253678
0.374695
0.501589
0.617494
0.706787
0.771279
0.813325
0.833969
0.839646
0.839515
0.838861
0.838715
0.838705
-0.357512
-0.327421
-0.266735
-0.183901
-0.0884545
0.0146823
0.124593
0.241108
0.364151
0.493909
0.613767
0.707746
0.776608
0.821459
0.842635
0.847028
0.844969
0.843151
0.84295
0.843302
-0.376474
-0.345848
-0.28447
-0.200848
-0.104566
-0.000496164
0.110491
0.228311
0.35307
0.485323
0.608793
0.707496
0.78128
0.829762
0.852641
0.856838
0.853004
0.848876
0.847357
0.847572
-0.394828
-0.36364
-0.301627
-0.217326
-0.120334
-0.0154896
0.0963574
0.215233
0.341389
0.475763
0.602434
0.705758
0.78502
0.837836
0.863672
0.869751
0.866019
0.858603
0.851318
0.838207
-0.412511
-0.380786
-0.318321
-0.233534
-0.136037
-0.0306159
0.0817944
0.201418
0.328609
0.464641
0.594108
0.701842
0.787407
0.845211
0.874446
0.884283
0.881015
0.866902
0.845556
0.835944
-0.429359
-0.397452
-0.33437
-0.249282
-0.151319
-0.0455392
0.0670169
0.187174
0.315008
0.452174
0.583796
0.695153
0.787417
0.850604
0.880944
0.890985
0.888844
0.862695
0.795784
0.76609
-0.444721
-0.414921
-0.34948
-0.264099
-0.165376
-0.0597566
0.0523451
0.172728
0.300799
0.438468
0.571382
0.68527
0.783361
0.853116
0.877575
0.882559
0.865771
0.808373
0.738871
0.696438
-0.499082
-0.430297
-0.363109
-0.279121
-0.179897
-0.0747799
0.0377021
0.157783
0.285589
0.423022
0.556184
0.671367
0.771062
0.848032
0.847191
0.84413
0.787178
0.712768
0.634717
0.591302
-0.460672
-0.444741
-0.383421
-0.298323
-0.20138
-0.0962832
0.0151786
0.134676
0.261619
0.397895
0.529576
0.643824
0.737063
0.820175
0.800088
0.678463
0.568307
0.491723
0.416499
0.444601
-0.49065
-0.461684
-0.399513
-0.315266
-0.218376
-0.113394
-0.00163309
0.117258
0.243186
0.377769
0.506828
0.616929
0.700247
0.744098
0.690275
0.533716
0.40116
0.306598
0.206297
0.254019
-0.513699
-0.481822
-0.418575
-0.334212
-0.237208
-0.132337
-0.0206493
0.0974199
0.221975
0.354201
0.479588
0.58336
0.657421
0.66615
0.553285
0.375244
0.218626
0.0968618
-0.035915
-0.0043492
-0.536167
-0.502838
-0.438495
-0.353246
-0.256178
-0.151473
-0.040322
0.0767812
0.199745
0.329188
0.449858
0.545367
0.603469
0.580373
0.415613
0.215049
0.0218488
-0.148114
-0.33763
-0.35789
-0.558024
-0.524298
-0.459128
-0.373144
-0.275969
-0.171512
-0.0610358
0.0549607
0.176049
0.302261
0.417407
0.504392
0.542455
0.481664
0.284299
0.0701465
-0.149325
-0.339955
-0.582374
-0.877335
-0.580158
-0.54646
-0.48081
-0.394392
-0.297071
-0.19282
-0.0829597
0.031877
0.150952
0.273617
0.382796
0.461162
0.476829
0.364087
0.169778
-0.0435092
-0.250033
-0.423723
-0.494491
-0.572409
-0.603508
-0.569788
-0.503886
-0.4173
-0.319975
-0.216032
-0.106891
0.00659615
0.123313
0.241848
0.34459
0.411522
0.401415
0.254763
0.0676934
-0.126531
-0.291896
-0.3864
-0.410842
-0.426605
-0.628379
-0.594571
-0.528526
-0.441941
-0.344807
-0.241356
-0.133186
-0.0213689
0.0925457
0.206257
0.302082
0.354065
0.325871
0.153008
-0.0250224
-0.19405
-0.322919
-0.362822
-0.37561
-0.376906
-0.654969
-0.620979
-0.554793
-0.46831
-0.371517
-0.268796
-0.161866
-0.0520692
0.0585831
0.166863
0.254781
0.291946
0.242627
0.0589928
-0.109962
-0.261357
-0.338984
-0.356119
-0.357548
-0.357375
-0.683334
-0.649074
-0.582717
-0.496408
-0.400123
-0.298343
-0.192934
-0.0855198
0.021437
0.123744
0.202815
0.227741
0.141524
-0.0269408
-0.18737
-0.312219
-0.349517
-0.347848
-0.346955
-0.346381
-0.713194
-0.67869
-0.612196
-0.526153
-0.430543
-0.329945
-0.226363
-0.121694
-0.0188509
0.0770191
0.147135
0.154545
0.0498639
-0.106515
-0.248661
-0.326692
-0.336972
-0.339555
-0.340213
-0.339943
-0.744
-0.709361
-0.642979
-0.557322
-0.462594
-0.363451
-0.262003
-0.16046
-0.0620901
0.0270553
0.0882144
0.0803222
-0.0323479
-0.173867
-0.293492
-0.325706
-0.334425
-0.33589
-0.335645
-0.335347
-0.775297
-0.74056
-0.674608
-0.589528
-0.495937
-0.398544
-0.299577
-0.201526
-0.107988
-0.0254344
0.0251714
0.00998394
-0.107595
-0.228702
-0.323757
-0.342139
-0.333323
-0.332284
-0.332239
-0.332014
-0.806185
-0.771591
-0.706251
-0.62217
-0.530038
-0.434758
-0.33864
-0.244417
-0.156062
-0.079783
-0.0391696
-0.054226
-0.173239
-0.270576
-0.326392
-0.335587
-0.332757
-0.331359
-0.330776
-0.33054
-0.835153
-0.801283
-0.736937
-0.65434
-0.564146
-0.471403
-0.378545
-0.288449
-0.205498
-0.135385
-0.0984477
-0.124311
-0.225427
-0.309609
-0.314471
-0.331053
-0.333738
-0.331599
-0.3308
-0.330316
-0.860588
-0.827773
-0.765565
-0.684893
-0.597238
-0.507559
-0.418439
-0.332777
-0.255171
-0.191339
-0.154414
-0.191003
-0.268055
-0.32911
-0.35006
-0.341212
-0.338047
-0.336626
-0.33576
-0.335172
-0.880386
-0.849309
-0.789955
-0.712443
-0.628045
-0.542114
-0.457248
-0.376385
-0.303954
-0.246288
-0.211576
-0.243833
-0.297611
-0.354358
-0.383969
-0.357821
-0.345
-0.342823
-0.341682
-0.341169
-0.892355
-0.863978
-0.808439
-0.735067
-0.655101
-0.57377
-0.493809
-0.418081
-0.350803
-0.298638
-0.266155
-0.286132
-0.305952
-0.341322
-0.336845
-0.337549
-0.339451
-0.340191
-0.340543
-0.340809
-0.893917
-0.869562
-0.818985
-0.751031
-0.676734
-0.601127
-0.526815
-0.456638
-0.394596
-0.347079
-0.311186
-0.321525
-0.308032
-0.297123
-0.310011
-0.32868
-0.33639
-0.339101
-0.340328
-0.340611
-0.882825
-0.863237
-0.819449
-0.75878
-0.691512
-0.622746
-0.554953
-0.490797
-0.434164
-0.390684
-0.349332
-0.355651
-0.344846
-0.33342
-0.34749
-0.351033
-0.352163
-0.35245
-0.352354
-0.352286
-0.857258
-0.842584
-0.808078
-0.757081
-0.698457
-0.637663
-0.577084
-0.519254
-0.468139
-0.428823
-0.383766
-0.385489
-0.400247
-0.438559
-0.420149
-0.386955
-0.37108
-0.365454
-0.363253
-0.362597
-0.819801
-0.810354
-0.785749
-0.746101
-0.697576
-0.645627
-0.592563
-0.540989
-0.494897
-0.459721
-0.428718
-0.405885
-0.39262
-0.419811
-0.40608
-0.372823
-0.356803
-0.351993
-0.349892
-0.348844
-0.777132
-0.771752
-0.757277
-0.728669
-0.690816
-0.647434
-0.60156
-0.555481
-0.513093
-0.479794
-0.449176
-0.399409
-0.321643
-0.277627
-0.290332
-0.308191
-0.313146
-0.316923
-0.3198
-0.320272
-0.738919
-0.735643
-0.728758
-0.710155
-0.681071
-0.644988
-0.605153
-0.563215
-0.522118
-0.487142
-0.45998
-0.399767
-0.318159
-0.18875
-0.0893236
-0.138987
-0.245274
-0.312263
-0.339123
-0.34745
-0.711593
-0.709549
-0.706035
-0.694783
-0.672156
-0.641353
-0.605405
-0.565516
-0.523396
-0.484232
-0.455495
-0.438743
-0.480651
-0.642834
-0.89507
-1.07555
-1.1455
-1.09652
-0.965359
-0.924307
-0.691119
-0.690372
-0.689222
-0.683647
-0.666715
-0.639161
-0.604306
-0.563946
-0.519217
-0.471301
-0.436865
-0.428153
-0.567551
-0.838996
-1.20267
-1.3437
-1.28203
-1.14377
-0.993406
-0.93695
-0.679286
-0.679016
-0.678409
-0.675855
-0.664125
-0.638402
-0.602807
-0.560475
-0.510921
-0.453952
-0.408165
-0.369333
-0.367452
-0.37428
-0.379009
-0.373358
-0.282872
-0.168978
-0.0684169
-0.0205684
-0.671373
-0.671187
-0.670618
-0.669709
-0.662785
-0.639151
-0.602393
-0.556351
-0.501437
-0.436938
-0.365924
-0.291112
-0.150158
0.103101
0.387313
0.675491
0.911531
1.04142
1.10522
1.12574
-0.666645
-0.66663
-0.666556
-0.666875
-0.662481
-0.641934
-0.603674
-0.553305
-0.493173
-0.417628
-0.325935
-0.234532
-0.0168671
0.354443
0.764429
1.16149
1.45546
1.60279
1.65493
1.66445
-0.662625
-0.662697
-0.66276
-0.662667
-0.661664
-0.64586
-0.607124
-0.55298
-0.486949
-0.404373
-0.303979
-0.198694
0.00440431
0.37076
0.75331
1.10808
1.37655
1.5064
1.54331
1.54741
-0.659578
-0.659669
-0.659576
-0.658711
-0.658043
-0.650205
-0.6128
-0.555983
-0.485911
-0.400688
-0.299472
-0.196686
-0.0374563
0.269387
0.567181
0.822895
1.00387
1.08942
1.12067
1.12875
-0.658365
-0.659381
-0.662134
-0.667054
-0.672233
-0.66165
-0.620228
-0.561565
-0.492237
-0.406539
-0.310529
-0.214079
-0.091813
0.143742
0.366316
0.537217
0.65429
0.716158
0.746982
0.758705
-0.658007
-0.659643
-0.663844
-0.673725
-0.685169
-0.668131
-0.623371
-0.571186
-0.50542
-0.419842
-0.330671
-0.246503
-0.153063
0.0302235
0.207555
0.344122
0.445569
0.504648
0.533623
0.542738
-0.682431
-0.682911
-0.677335
-0.649401
-0.611032
-0.599671
-0.606449
-0.585422
-0.523218
-0.437608
-0.354679
-0.278439
-0.203493
-0.0588774
0.0876556
0.205065
0.295999
0.351759
0.376593
0.382634
-0.73134
-0.729837
-0.715061
-0.664522
-0.600268
-0.588495
-0.629392
-0.616874
-0.547925
-0.457806
-0.37535
-0.309093
-0.251742
-0.135395
-0.0123755
0.0861935
0.164856
0.213325
0.233414
0.236622
-0.812295
-0.814399
-0.83867
-0.874985
-0.880562
-0.850283
-0.80588
-0.697448
-0.582769
-0.476371
-0.392445
-0.331602
-0.284416
-0.190475
-0.089918
-0.0109613
0.0511581
0.0876244
0.101467
0.103166
-0.976685
-1.00271
-1.06603
-1.1298
-1.1505
-1.10845
-0.983487
-0.784404
-0.616988
-0.488456
-0.399503
-0.341921
-0.297183
-0.227031
-0.149235
-0.0865878
-0.038763
-0.0118176
-0.000992564
-0.000631937
-1.0731
-1.1006
-1.14923
-1.19328
-1.20978
-1.16676
-1.02091
-0.79983
-0.61574
-0.480858
-0.394683
-0.341774
-0.302693
-0.249196
-0.192143
-0.144519
-0.109496
-0.089591
-0.0829672
-0.0836578
-0.97189
-0.994886
-1.03236
-1.07018
-1.08514
-1.0429
-0.895926
-0.713267
-0.559613
-0.445569
-0.372275
-0.328263
-0.298934
-0.263335
-0.222327
-0.188627
-0.164222
-0.151367
-0.147377
-0.148787
-0.68115
-0.700124
-0.736099
-0.778123
-0.802068
-0.774956
-0.675866
-0.561504
-0.462199
-0.386351
-0.334798
-0.30392
-0.285765
-0.262274
-0.238122
-0.220174
-0.208929
-0.204577
-0.203668
-0.204859
-0.3172
-0.328958
-0.353768
-0.388083
-0.421716
-0.432389
-0.417678
-0.38705
-0.351589
-0.31597
-0.287873
-0.26922
-0.259081
-0.249189
-0.242076
-0.240045
-0.241383
-0.244906
-0.24641
-0.24696
-0.0356881
-0.0417046
-0.0584328
-0.0889719
-0.131253
-0.176946
-0.213311
-0.236792
-0.247477
-0.245847
-0.238052
-0.228299
-0.221685
-0.224066
-0.231784
-0.242085
-0.252597
-0.259945
-0.26213
-0.262328
0.107876
0.104213
0.0920239
0.065607
0.0221347
-0.0334799
-0.0885948
-0.134498
-0.16724
-0.187114
-0.194209
-0.192068
-0.189293
-0.200335
-0.215641
-0.230114
-0.241927
-0.248467
-0.250164
-0.250444
0.148694
0.146186
0.136969
0.115816
0.0794971
0.0309305
-0.0219888
-0.0722157
-0.113409
-0.143849
-0.162603
-0.171652
-0.176781
-0.188638
-0.20014
-0.210551
-0.218538
-0.221827
-0.222696
-0.223149
0.140134
0.138373
0.131728
0.116244
0.089248
0.0519498
0.00851003
-0.0360415
-0.0772231
-0.113212
-0.142414
-0.167278
-0.182859
-0.185572
-0.188434
-0.190165
-0.191465
-0.191625
-0.191897
-0.192462
0.114933
0.113808
0.109297
0.0985829
0.0795627
0.0524539
0.018879
-0.0177938
-0.0544402
-0.0902248
-0.12535
-0.16211
-0.184725
-0.179566
-0.171247
-0.16709
-0.165141
-0.164361
-0.164552
-0.165159
0.0873002
0.0866886
0.0838134
0.0767163
0.0637473
0.044642
0.0199175
-0.00847111
-0.0388334
-0.0706837
-0.103824
-0.138568
-0.156014
-0.150692
-0.144451
-0.142792
-0.142362
-0.142811
-0.143281
-0.143761
0.0620207
0.0617114
0.0600145
0.0555614
0.0470878
0.034164
0.01681
-0.00371571
-0.0266239
-0.0510825
-0.0751796
-0.0974307
-0.106396
-0.10733
-0.110312
-0.115582
-0.12031
-0.123281
-0.12415
-0.124302
0.0402142
0.0400957
0.0392239
0.0366441
0.0314508
0.0232992
0.0120402
-0.00146333
-0.0167223
-0.0326098
-0.0458709
-0.0532528
-0.0545899
-0.0614702
-0.0725867
-0.0841785
-0.0928826
-0.0974806
-0.0984782
-0.0983136
0.0210969
0.0211518
0.0208338
0.0196108
0.0170511
0.0128033
0.00681413
-0.000406353
-0.00846073
-0.0163357
-0.0205252
-0.0154719
-0.00982043
-0.0234334
-0.0365699
-0.0478157
-0.0559022
-0.0598758
-0.0606508
-0.060323
0.00361934
0.00370237
0.00371237
0.00391893
0.00386172
0.00333823
0.00234966
0.00104297
-0.00053094
-0.00222031
-0.00300014
-0.00139449
0.00154331
0.000717713
-0.00405712
-0.00801418
-0.0106146
-0.0119499
-0.0123719
-0.0121827
-0.113729
0.0513397
0.243533
0.4112
0.54443
0.648422
0.733875
0.806708
0.840195
0.817013
0.183522
0.302697
0.430707
0.541006
0.63357
0.709817
0.771483
0.815335
0.83729
0.849542
0.398663
0.480241
0.567679
0.644671
0.710721
0.765936
0.809875
0.84204
0.865409
0.883511
0.557059
0.615528
0.675949
0.732213
0.781004
0.822469
0.856583
0.883861
0.906443
0.924815
0.680806
0.723265
0.768643
0.811824
0.850018
0.883404
0.912025
0.935896
0.956151
0.974029
0.78407
0.816564
0.85428
0.889441
0.921751
0.95075
0.976119
0.997474
1.01524
1.03261
0.875964
0.904436
0.938144
0.970054
0.99981
1.02683
1.05045
1.07009
1.08554
1.10263
0.964158
0.993224
1.02708
1.05898
1.08847
1.11496
1.13775
1.15619
1.16952
1.18655
1.05923
1.09236
1.12891
1.16241
1.19238
1.21851
1.24041
1.25766
1.2695
1.28689
1.17409
1.21186
1.25045
1.28465
1.31395
1.33866
1.359
1.37487
1.38632
1.40439
1.31895
1.35746
1.39357
1.42422
1.44987
1.47195
1.49098
1.5065
1.51891
1.53691
1.49397
1.52558
1.55174
1.57417
1.59412
1.61283
1.63054
1.64701
1.66235
1.68041
1.68255
1.69975
1.71477
1.73099
1.74689
1.76141
1.77461
1.78853
1.80607
1.82622
1.86426
1.87379
1.88532
1.89613
1.90541
1.91499
1.92576
1.93713
1.94848
1.96384
2.07147
2.07514
2.06019
2.04538
2.0391
2.04477
2.06325
2.09355
2.12573
2.15238
2.3778
2.24294
2.16629
2.1239
2.10647
2.11044
2.13783
2.19425
2.29686
2.52123
0.70388
0.701753
0.697271
0.68865
0.676432
0.664312
0.654097
0.646221
0.64063
0.637413
0.637104
0.639885
0.645022
0.652269
0.661674
0.673225
0.685883
0.696923
0.703038
0.706094
0.628322
0.634169
0.640505
0.645003
0.647479
0.647164
0.644441
0.640651
0.63717
0.634949
0.63485
0.637093
0.640791
0.645105
0.648929
0.650825
0.649898
0.646423
0.641263
0.634643
0.619877
0.622173
0.62558
0.628581
0.630664
0.632172
0.632943
0.632648
0.631654
0.630814
0.631041
0.632517
0.63437
0.635704
0.635904
0.635029
0.63349
0.631162
0.627904
0.624986
0.614337
0.615423
0.617259
0.619644
0.621677
0.623117
0.624155
0.624932
0.625369
0.62564
0.62619
0.627052
0.627693
0.627791
0.627402
0.626571
0.625114
0.62304
0.62096
0.61958
0.609095
0.609758
0.610869
0.612581
0.614374
0.61602
0.617336
0.618381
0.619305
0.620151
0.620948
0.621563
0.621807
0.621678
0.621139
0.620105
0.618693
0.617162
0.615851
0.615074
0.604071
0.60453
0.60532
0.606626
0.608126
0.60966
0.611149
0.61248
0.613664
0.614784
0.615779
0.616422
0.616626
0.616397
0.615734
0.614771
0.613666
0.612548
0.611642
0.611127
0.599181
0.599525
0.600139
0.601217
0.602525
0.603919
0.605385
0.60687
0.608298
0.609654
0.610858
0.611638
0.611886
0.611666
0.611109
0.610366
0.60954
0.608692
0.608031
0.607655
0.594371
0.594638
0.595135
0.596054
0.59724
0.59856
0.599986
0.60152
0.603124
0.604732
0.60619
0.607166
0.607555
0.607502
0.607162
0.606644
0.606027
0.605412
0.604933
0.604646
0.589557
0.589769
0.590183
0.590993
0.592101
0.593376
0.594798
0.596385
0.598131
0.59999
0.601752
0.603009
0.603653
0.603855
0.603756
0.603467
0.603065
0.602646
0.602309
0.602085
0.584649
0.584819
0.585174
0.585913
0.586978
0.588235
0.589691
0.59137
0.593284
0.595413
0.597539
0.599175
0.600161
0.600665
0.600832
0.600784
0.600603
0.600363
0.600145
0.599967
0.579556
0.579693
0.580007
0.580702
0.581754
0.58304
0.584568
0.586383
0.58852
0.590978
0.593549
0.595655
0.597052
0.597908
0.598379
0.59859
0.598628
0.598565
0.598448
0.598305
0.574186
0.574296
0.574582
0.575259
0.576332
0.577692
0.579339
0.581343
0.583773
0.586647
0.589765
0.592436
0.594317
0.595583
0.596397
0.596893
0.597167
0.59728
0.59725
0.597134
0.56844
0.568526
0.568797
0.56948
0.57061
0.572087
0.573906
0.57617
0.578971
0.582369
0.586155
0.589505
0.591963
0.593705
0.59491
0.595739
0.596275
0.596556
0.596606
0.596511
0.562204
0.562269
0.562533
0.563245
0.56447
0.566112
0.568167
0.570771
0.574044
0.578092
0.582693
0.586859
0.590002
0.592305
0.593962
0.595166
0.595991
0.596458
0.596584
0.596505
0.555346
0.55539
0.555655
0.556418
0.557779
0.559641
0.562008
0.565042
0.568912
0.573761
0.579352
0.584497
0.588454
0.59142
0.59361
0.59524
0.5964
0.597066
0.597267
0.597201
0.547709
0.547731
0.547997
0.548836
0.550377
0.552522
0.555285
0.558869
0.563481
0.569314
0.576104
0.582422
0.587343
0.591091
0.593916
0.59605
0.597591
0.598475
0.598749
0.598693
0.539061
0.539074
0.539357
0.540295
0.542069
0.544563
0.547836
0.552111
0.557646
0.564686
0.572925
0.580641
0.586705
0.591371
0.594942
0.597687
0.599664
0.600784
0.601132
0.601081
0.529124
0.529107
0.52944
0.530523
0.53259
0.535545
0.539463
0.544604
0.551288
0.559806
0.569794
0.57917
0.58658
0.59233
0.596777
0.600231
0.602713
0.604091
0.604512
0.604463
0.517579
0.517537
0.517919
0.519195
0.521631
0.525182
0.529918
0.536154
0.544272
0.554608
0.566696
0.578033
0.587014
0.594032
0.599506
0.603775
0.606836
0.608487
0.608975
0.608923
0.503928
0.503859
0.504321
0.505852
0.508776
0.513096
0.518891
0.52653
0.536456
0.549026
0.563628
0.577263
0.588056
0.596527
0.603202
0.608407
0.612104
0.614032
0.614576
0.614515
0.4875
0.487402
0.487993
0.489879
0.493455
0.498807
0.506004
0.515472
0.527697
0.543019
0.560611
0.576903
0.589763
0.599882
0.607906
0.61417
0.618552
0.620742
0.62132
0.621242
0.467329
0.467205
0.468002
0.470408
0.474905
0.48169
0.490801
0.502706
0.517882
0.536589
0.557702
0.577017
0.592193
0.604145
0.613641
0.621073
0.626149
0.628557
0.629136
0.629034
0.44196
0.441821
0.442958
0.446171
0.452066
0.46095
0.472779
0.487998
0.506981
0.529818
0.555016
0.577703
0.595396
0.60933
0.620424
0.629079
0.634783
0.637318
0.637855
0.637722
0.409022
0.408907
0.410667
0.415284
0.423505
0.435672
0.45149
0.471259
0.495112
0.522907
0.552738
0.579086
0.599435
0.615449
0.628193
0.638055
0.644227
0.64675
0.647193
0.647025
0.364263
0.364321
0.367459
0.375007
0.38755
0.405077
0.426813
0.452715
0.482631
0.516198
0.551122
0.581303
0.604373
0.622476
0.636862
0.647777
0.654126
0.656448
0.656752
0.656553
0.299719
0.300976
0.308659
0.322759
0.343225
0.369287
0.399362
0.433082
0.470168
0.510157
0.550438
0.584483
0.610217
0.630334
0.646172
0.657781
0.66397
0.665853
0.665983
0.665769
0.223258
0.225108
0.239828
0.264072
0.295632
0.331753
0.3709
0.412909
0.457619
0.504594
0.550958
0.589625
0.618635
0.641186
0.658619
0.670778
0.676523
0.678025
0.678101
0.677968
0.144434
0.150805
0.172546
0.2072
0.249283
0.295177
0.343348
0.393679
0.446066
0.500088
0.552622
0.595945
0.628172
0.653072
0.672175
0.684257
0.689051
0.69002
0.690038
0.68997
0.079905
0.0886683
0.115026
0.156809
0.207132
0.261339
0.317631
0.375738
0.435432
0.496209
0.554596
0.602223
0.637318
0.664075
0.68396
0.695732
0.700076
0.700937
0.700994
0.700979
0.0274306
0.0367979
0.0667585
0.113844
0.170378
0.231278
0.294431
0.359399
0.425755
0.492843
0.556756
0.608431
0.646177
0.674618
0.695185
0.706846
0.710915
0.711687
0.711788
0.711825
-0.0164283
-0.00677697
0.0256608
0.0767845
0.138416
0.204871
0.273842
0.344806
0.417162
0.490087
0.559225
0.614765
0.65505
0.685152
0.706553
0.718216
0.722048
0.722942
0.723076
0.723169
-0.0540492
-0.0442966
-0.0100134
0.0443367
0.110192
0.181389
0.255439
0.33173
0.409539
0.487889
0.561993
0.621296
0.664105
0.695869
0.718103
0.730012
0.734019
0.734958
0.735139
0.735254
-0.0871313
-0.0773621
-0.0416727
0.0153966
0.0847978
0.160092
0.238648
0.319749
0.402579
0.486027
0.564907
0.62789
0.673212
0.706682
0.729918
0.742352
0.746523
0.747501
0.747625
0.747765
-0.116985
-0.107202
-0.0703685
-0.0109529
0.0614932
0.140383
0.222959
0.308442
0.395938
0.484233
0.567737
0.634348
0.682184
0.717398
0.741707
0.754708
0.759148
0.760152
0.760277
0.760366
-0.144531
-0.134726
-0.0969177
-0.0354247
0.0397046
0.121788
0.207975
0.297466
0.38932
0.482237
0.570262
0.64048
0.690819
0.727757
0.753106
0.766673
0.771401
0.772432
0.772524
0.772583
-0.170359
-0.160506
-0.121805
-0.0585653
0.0189954
0.103942
0.193394
0.286558
0.382481
0.479832
0.572308
0.646122
0.698943
0.737549
0.763902
0.777964
0.782963
0.784002
0.784046
0.784069
-0.19497
-0.185018
-0.145444
-0.0806994
-0.000933132
0.0865763
0.178985
0.275519
0.375256
0.476859
0.573728
0.651173
0.706482
0.746697
0.773943
0.788378
0.793518
0.794564
0.794574
0.794563
-0.21868
-0.208543
-0.168226
-0.102022
-0.0202898
0.0695072
0.164596
0.264222
0.367512
0.473187
0.574413
0.655562
0.713404
0.755183
0.783181
0.797833
0.80303
0.804028
0.804002
0.803961
-0.241603
-0.23128
-0.190302
-0.122683
-0.0392188
0.0526378
0.150135
0.252575
0.35916
0.468715
0.574272
0.659247
0.719732
0.763059
0.791638
0.806354
0.811453
0.812404
0.812338
0.812272
-0.263946
-0.253371
-0.21168
-0.142797
-0.0577921
0.0359028
0.135554
0.240539
0.35016
0.463389
0.57322
0.662182
0.725514
0.770467
0.7995
0.814058
0.818928
0.819762
0.819657
0.819576
-0.285684
-0.274859
-0.232501
-0.162437
-0.0760377
0.0192869
0.120856
0.22812
0.340501
0.45716
0.571181
0.664311
0.73081
0.777571
0.806957
0.821101
0.825559
0.826219
0.826072
0.825973
-0.306875
-0.295787
-0.252723
-0.181606
-0.0939577
0.00279927
0.106059
0.21535
0.330205
0.450019
0.568094
0.665565
0.73563
0.784543
0.814316
0.82775
0.831492
0.831861
0.831666
0.831563
-0.327409
-0.316113
-0.272347
-0.200273
-0.111524
-0.0135077
0.0912088
0.202275
0.319321
0.441996
0.563907
0.665849
0.739933
0.791522
0.821943
0.834442
0.837007
0.836796
0.836524
0.836456
-0.347414
-0.335808
-0.291378
-0.218435
-0.128721
-0.0296096
0.0763824
0.188962
0.307917
0.433146
0.558599
0.66504
0.743592
0.798532
0.830213
0.841901
0.84279
0.841334
0.840788
0.840835
-0.366742
-0.354851
-0.309801
-0.236063
-0.145481
-0.0454325
0.0616492
0.175518
0.296088
0.423514
0.552185
0.663004
0.746407
0.805425
0.839296
0.850992
0.850227
0.846738
0.844828
0.844439
-0.385464
-0.3733
-0.327572
-0.253117
-0.161778
-0.0609149
0.0470846
0.162013
0.283934
0.413221
0.544707
0.659603
0.748106
0.811842
0.848856
0.862101
0.86124
0.85567
0.849592
0.842162
-0.403505
-0.391114
-0.344786
-0.26975
-0.177816
-0.0763183
0.0323709
0.148073
0.271039
0.40181
0.535692
0.65436
0.748302
0.817619
0.858518
0.875032
0.876512
0.869925
0.858411
0.85428
-0.42082
-0.408218
-0.361432
-0.285942
-0.19361
-0.091642
0.0175139
0.133671
0.257347
0.389145
0.524908
0.646835
0.746136
0.82195
0.866401
0.885978
0.889267
0.884665
0.846182
0.794754
-0.437143
-0.423828
-0.377364
-0.301625
-0.209269
-0.107056