/*--------------------------------*- C++ -*----------------------------------*\
  =========                 |
  \\      /  F ield         | OpenFOAM: The Open Source CFD Toolbox
   \\    /   O peration     | Website:  https://openfoam.org
    \\  /    A nd           | Version:  9
     \\/     M anipulation  |
\*---------------------------------------------------------------------------*/
FoamFile
{
    format      ascii;
    class       volScalarField;
    location    "9";
    object      p;
}
// * * * * * * * * * * * * * * * * * * * * * * * * * * * * * * * * * * * * * //

dimensions      [0 2 -2 0 0 0 0];

internalField   nonuniform List<scalar> 
8800
(
0.417666
0.369967
0.331476
0.302686
0.282066
0.267505
0.257214
0.250016
0.245381
0.243329
0.244302
0.248036
0.254166
0.262975
0.27532
0.292699
0.317184
0.350895
0.393198
0.451897
0.248585
0.256296
0.264105
0.267586
0.266316
0.261561
0.255453
0.24975
0.245326
0.2426
0.24216
0.24426
0.248195
0.253557
0.259766
0.265566
0.268837
0.267878
0.262122
0.253224
0.226475
0.232821
0.237401
0.240859
0.243389
0.244468
0.243771
0.24196
0.240064
0.239059
0.239752
0.241709
0.243991
0.245581
0.245565
0.243764
0.240822
0.236867
0.231907
0.228107
0.220409
0.223252
0.226653
0.229722
0.231835
0.233271
0.234254
0.234679
0.234655
0.234671
0.235014
0.235542
0.235732
0.235263
0.23422
0.232605
0.230096
0.226722
0.223767
0.222273
0.215498
0.216906
0.219814
0.22297
0.225705
0.227828
0.229234
0.230095
0.230585
0.230896
0.231247
0.231417
0.231141
0.230309
0.22874
0.226422
0.223556
0.220397
0.218282
0.217705
0.214386
0.214977
0.216486
0.218264
0.220015
0.221751
0.223326
0.224635
0.225608
0.22628
0.226569
0.226401
0.225755
0.224654
0.223243
0.22162
0.219946
0.218277
0.217259
0.21705
0.213383
0.213664
0.214468
0.215533
0.216702
0.217866
0.219094
0.22022
0.221192
0.221943
0.222327
0.222254
0.221787
0.221014
0.220075
0.219136
0.218163
0.217261
0.216758
0.216666
0.211447
0.211577
0.212
0.212664
0.21341
0.21434
0.215395
0.216456
0.217469
0.218335
0.218836
0.218875
0.218556
0.21799
0.217392
0.216816
0.216268
0.215786
0.215556
0.215512
0.208675
0.208742
0.209008
0.209466
0.210015
0.210683
0.211444
0.212329
0.213286
0.214227
0.214903
0.215193
0.215196
0.215041
0.214778
0.214468
0.214152
0.213885
0.213773
0.213753
0.20552
0.205563
0.205743
0.206075
0.206519
0.207094
0.207812
0.208679
0.20968
0.210756
0.211649
0.212178
0.212409
0.212447
0.212371
0.212241
0.212085
0.211957
0.211907
0.211894
0.201991
0.20202
0.20215
0.202399
0.202764
0.203268
0.203947
0.204828
0.205919
0.207184
0.208347
0.209154
0.209641
0.209907
0.21003
0.210066
0.210053
0.210029
0.210022
0.210013
0.198092
0.198119
0.198232
0.198452
0.198794
0.199298
0.200009
0.200976
0.202229
0.203762
0.20526
0.206381
0.207125
0.207604
0.207892
0.208057
0.208143
0.208186
0.208205
0.208198
0.193792
0.193814
0.193935
0.194161
0.194523
0.195073
0.195873
0.196993
0.198492
0.200381
0.202291
0.203772
0.204818
0.205516
0.205969
0.206252
0.20642
0.206514
0.206553
0.206547
0.18906
0.189084
0.189218
0.189476
0.189895
0.190538
0.191489
0.19284
0.194677
0.197034
0.19946
0.20139
0.202768
0.203709
0.204332
0.204732
0.204977
0.205117
0.205174
0.205167
0.183816
0.183844
0.184006
0.184317
0.184825
0.18561
0.186778
0.188449
0.190739
0.1937
0.196777
0.199243
0.201015
0.20224
0.203057
0.203586
0.203914
0.204101
0.204178
0.20417
0.177943
0.177977
0.178179
0.178568
0.179203
0.180185
0.181649
0.183748
0.186629
0.190364
0.194255
0.197381
0.199637
0.201199
0.202245
0.202924
0.203346
0.203588
0.203686
0.203677
0.171278
0.171321
0.17158
0.172075
0.172882
0.174129
0.175987
0.178648
0.182295
0.187017
0.19193
0.195873
0.198719
0.200692
0.202015
0.202874
0.203409
0.203715
0.20384
0.203828
0.163604
0.16366
0.163994
0.164631
0.165669
0.167271
0.169649
0.173044
0.17768
0.183656
0.189848
0.194805
0.198378
0.200854
0.202513
0.203591
0.204263
0.204648
0.204804
0.204789
0.154625
0.154701
0.155135
0.155964
0.157314
0.159391
0.162458
0.166813
0.172722
0.180288
0.188077
0.194285
0.198751
0.201844
0.203917
0.205263
0.206102
0.206582
0.206776
0.206757
0.143935
0.144038
0.144611
0.145704
0.147486
0.150206
0.154191
0.159807
0.16736
0.176934
0.186703
0.194449
0.200009
0.203858
0.20644
0.208115
0.209157
0.209751
0.209991
0.209967
0.130963
0.131103
0.131871
0.133346
0.135742
0.139364
0.144576
0.15186
0.161533
0.17363
0.185837
0.195454
0.202346
0.207121
0.210329
0.212412
0.213705
0.214437
0.214732
0.214703
0.114889
0.115083
0.116136
0.118177
0.121448
0.126303
0.133254
0.142779
0.155193
0.170439
0.185607
0.197478
0.205979
0.211886
0.215871
0.218471
0.220084
0.220991
0.221352
0.221313
0.0945197
0.094802
0.0962986
0.0992225
0.103804
0.11048
0.119841
0.132387
0.148332
0.167457
0.186161
0.2007
0.211126
0.218414
0.223376
0.226646
0.228694
0.229844
0.230292
0.230235
0.0679765
0.0684127
0.0706874
0.0750942
0.0817533
0.0911969
0.104043
0.120657
0.141067
0.164856
0.187678
0.205297
0.217983
0.226948
0.233147
0.237311
0.239975
0.241491
0.242076
0.241992
0.0319352
0.0327227
0.0366555
0.0438674
0.0541095
0.0679509
0.0858065
0.107786
0.133688
0.162907
0.190356
0.211414
0.226676
0.237643
0.245415
0.2508
0.254379
0.25648
0.257304
0.25719
-0.0200739
-0.0177656
-0.00957331
0.00340036
0.0200194
0.0406616
0.0654307
0.0942053
0.126594
0.161881
0.194325
0.219068
0.237151
0.250423
0.260151
0.267222
0.27222
0.275404
0.276753
0.276602
-0.0986695
-0.0872715
-0.0684735
-0.045201
-0.0190148
0.0106301
0.0438434
0.0804481
0.120047
0.161977
0.199889
0.228771
0.250173
0.266326
0.278709
0.288345
0.295861
0.301348
0.30432
0.304805
-0.182303
-0.157542
-0.127558
-0.0939797
-0.0580313
-0.0193234
0.022286
0.0667809
0.113917
0.163181
0.207559
0.241614
0.267294
0.2872
0.303041
0.315957
0.326641
0.336065
0.342377
0.343088
-0.245847
-0.218952
-0.18076
-0.138967
-0.0945665
-0.0476102
0.00192627
0.0539669
0.108286
0.164432
0.214699
0.253178
0.282193
0.304714
0.322604
0.337089
0.34891
0.358619
0.364317
0.365128
-0.29665
-0.267674
-0.224983
-0.177512
-0.126844
-0.0732863
-0.0170207
0.0417099
0.102558
0.164959
0.220336
0.262341
0.293682
0.317668
0.336406
0.351325
0.363368
0.373028
0.378779
0.37967
-0.33728
-0.307812
-0.261971
-0.210301
-0.154915
-0.0961564
-0.0343523
0.03011
0.0967239
0.164757
0.224743
0.26979
0.302962
0.327996
0.347272
0.362377
0.374383
0.383737
0.389468
0.390396
-0.371506
-0.341845
-0.293802
-0.238898
-0.179736
-0.116727
-0.0502549
0.0192205
0.0910654
0.164317
0.22855
0.276319
0.311081
0.336962
0.356609
0.37179
0.383717
0.392892
0.398528
0.399484
-0.401318
-0.371666
-0.322032
-0.264596
-0.202331
-0.135719
-0.0651919
0.00873042
0.0853083
0.163402
0.231702
0.282138
0.318466
0.345195
0.365242
0.380551
0.392437
0.401499
0.407007
0.407964
-0.428182
-0.398495
-0.347621
-0.288152
-0.223358
-0.153729
-0.0797031
-0.00181527
0.0791686
0.161979
0.234375
0.28758
0.325576
0.35324
0.373757
0.389248
0.401139
0.410122
0.415508
0.41647
-0.452967
-0.423197
-0.371353
-0.310223
-0.243323
-0.171126
-0.0940172
-0.0125195
0.0726121
0.160031
0.236621
0.292793
0.33265
0.361405
0.382504
0.398255
0.410216
0.4191
0.42437
0.425368
-0.476402
-0.446449
-0.39377
-0.331235
-0.262546
-0.188125
-0.108311
-0.0235547
0.0654633
0.157433
0.238402
0.297825
0.339824
0.369888
0.391718
0.407826
0.419903
0.428779
0.433877
0.434938
-0.498755
-0.468571
-0.415176
-0.351529
-0.281317
-0.204982
-0.122792
-0.0350739
0.0576212
0.154091
0.239637
0.302651
0.347138
0.378789
0.401552
0.418145
0.430415
0.439313
0.44427
0.44532
-0.520367
-0.489858
-0.435829
-0.371254
-0.299744
-0.221777
-0.137512
-0.0471408
0.0489945
0.149888
0.240189
0.307171
0.354545
0.388132
0.412082
0.429333
0.441906
0.450869
0.455707
0.456704
-0.541269
-0.51046
-0.455928
-0.390486
-0.317883
-0.238545
-0.152499
-0.0597758
0.0395311
0.144738
0.239925
0.311219
0.36192
0.397845
0.423305
0.441437
0.454463
0.463558
0.468312
0.469167
-0.561519
-0.530426
-0.475448
-0.409259
-0.335745
-0.255276
-0.167743
-0.0729768
0.0292176
0.138562
0.238691
0.314591
0.369049
0.407789
0.435162
0.454466
0.468131
0.477479
0.482177
0.482818
-0.581151
-0.549709
-0.494375
-0.427542
-0.353314
-0.271922
-0.183181
-0.0866951
0.0180752
0.131309
0.236349
0.31704
0.375665
0.417752
0.447533
0.468379
0.482882
0.492563
0.497256
0.497668
-0.600191
-0.568341
-0.512653
-0.445294
-0.370513
-0.288423
-0.198743
-0.10086
0.00614477
0.122964
0.232758
0.318304
0.381429
0.427405
0.460166
0.483033
0.498688
0.508847
0.513488
0.513656
-0.618441
-0.58636
-0.530239
-0.46248
-0.38728
-0.304693
-0.214344
-0.115376
-0.00649368
0.113573
0.227838
0.318169
0.385925
0.436222
0.472688
0.498213
0.515398
0.526081
0.530562
0.530463
-0.63592
-0.603618
-0.547108
-0.479033
-0.403535
-0.320653
-0.229878
-0.13015
-0.01974
0.103183
0.221588
0.316436
0.388708
0.443562
0.484524
0.51376
0.533134
0.544267
0.548232
0.547762
-0.652628
-0.620007
-0.563212
-0.494902
-0.419221
-0.336215
-0.24525
-0.14506
-0.0334872
0.0918996
0.214018
0.312958
0.389373
0.448705
0.494828
0.529193
0.552203
0.56385
0.566026
0.564869
-0.66843
-0.635566
-0.5785
-0.510017
-0.434284
-0.351302
-0.260362
-0.159992
-0.0475944
0.0798609
0.205206
0.307665
0.387658
0.450987
0.502335
0.543284
0.572778
0.587246
0.585416
0.58154
-0.683433
-0.650283
-0.592979
-0.524401
-0.448755
-0.365962
-0.275278
-0.175009
-0.0621406
0.0670012
0.19509
0.300345
0.383327
0.449571
0.505088
0.553232
0.592745
0.618244
0.617763
0.592799
-0.697607
-0.664203
-0.606751
-0.538223
-0.462877
-0.380489
-0.290386
-0.190599
-0.0776995
0.0526445
0.18305
0.290364
0.375571
0.443368
0.500038
0.553157
0.599975
0.628571
0.619658
0.589137
-0.710852
-0.677385
-0.61966
-0.551253
-0.476375
-0.394559
-0.305442
-0.206446
-0.0939802
0.0370971
0.169361
0.277884
0.363964
0.431988
0.483412
0.533508
0.571666
0.583
0.518395
0.470505
-0.722551
-0.690075
-0.63132
-0.562927
-0.488719
-0.407806
-0.32019
-0.222388
-0.110861
0.0204489
0.154088
0.262883
0.348455
0.416906
0.457633
0.484923
0.506488
0.466654
0.386722
0.333631
-0.77522
-0.698973
-0.642034
-0.574611
-0.50124
-0.421429
-0.334797
-0.238708
-0.128683
0.00225569
0.136828
0.245188
0.326819
0.397994
0.416205
0.412723
0.381984
0.311124
0.217005
0.165219
-0.725718
-0.712516
-0.655847
-0.590848
-0.518468
-0.440185
-0.356349
-0.262989
-0.155204
-0.0244785
0.110548
0.214726
0.285888
0.339113
0.344146
0.206385
0.07466
-0.0151226
-0.107995
-0.0537223
-0.751647
-0.72451
-0.66859
-0.60368
-0.532054
-0.455028
-0.372312
-0.281401
-0.176313
-0.0470549
0.0886254
0.189591
0.251181
0.275237
0.20633
0.0151404
-0.162044
-0.287113
-0.422836
-0.32875
-0.769799
-0.738374
-0.68286
-0.617615
-0.546563
-0.470751
-0.389791
-0.301611
-0.199951
-0.0729763
0.0627897
0.160925
0.209582
0.202822
0.0577831
-0.203946
-0.427074
-0.598011
-0.79679
-0.698342
-0.786382
-0.75312
-0.696822
-0.63116
-0.560621
-0.486061
-0.407322
-0.322494
-0.2246
-0.0992543
0.0375518
0.132465
0.164313
0.112325
-0.120898
-0.433401
-0.726037
-0.981499
-1.27314
-1.23179
-0.801051
-0.767554
-0.710681
-0.644784
-0.57481
-0.501627
-0.425391
-0.344275
-0.250713
-0.127861
0.0116235
0.104939
0.115281
0.00819795
-0.296896
-0.653332
-1.01671
-1.3543
-1.75074
-2.1192
-0.814855
-0.781611
-0.724525
-0.658653
-0.58929
-0.517583
-0.444079
-0.3673
-0.279033
-0.159751
-0.0175238
0.0764894
0.0643927
-0.0969634
-0.458786
-0.835561
-1.22364
-1.5606
-1.72441
-1.98654
-0.828326
-0.795287
-0.738388
-0.672725
-0.604113
-0.534098
-0.463759
-0.392187
-0.310787
-0.196131
-0.0485598
0.0479703
0.0148547
-0.216842
-0.605964
-0.981095
-1.30884
-1.53617
-1.59964
-1.64036
-0.841707
-0.808825
-0.752038
-0.686764
-0.619073
-0.550994
-0.484394
-0.419116
-0.346474
-0.239114
-0.0853216
0.0199539
-0.0375854
-0.342252
-0.736602
-1.11797
-1.38329
-1.4842
-1.51687
-1.53356
-0.855008
-0.822103
-0.76531
-0.700464
-0.633803
-0.567938
-0.505645
-0.448026
-0.388088
-0.291855
-0.131712
-0.00968237
-0.0962897
-0.467593
-0.86151
-1.26167
-1.54811
-1.51752
-1.5411
-1.55534
-0.867914
-0.834821
-0.7779
-0.713468
-0.647878
-0.584427
-0.526962
-0.478622
-0.434708
-0.359813
-0.199388
-0.0579984
-0.173897
-0.600425
-0.984602
-1.39585
-1.84021
-1.78722
-1.65297
-1.6153
-0.879926
-0.846524
-0.789375
-0.725272
-0.660711
-0.599737
-0.547619
-0.510445
-0.488849
-0.450479
-0.30936
-0.157122
-0.296605
-0.741118
-1.08535
-1.34883
-1.65178
-1.60934
-1.55792
-1.53431
-0.890378
-0.856485
-0.799221
-0.735268
-0.671576
-0.612997
-0.566583
-0.542562
-0.552153
-0.580446
-0.503273
-0.346908
-0.498127
-0.909809
-1.12288
-1.04876
-0.958676
-1.22369
-1.39401
-1.42761
-0.898867
-0.864308
-0.806722
-0.742739
-0.679599
-0.623059
-0.582605
-0.573073
-0.623823
-0.767968
-0.841433
-0.677956
-0.799191
-1.16447
-1.40453
-1.36933
-1.39631
-1.52336
-1.62899
-1.68052
-0.904729
-0.8693
-0.811182
-0.746875
-0.683822
-0.628557
-0.592608
-0.598489
-0.698018
-1.01325
-1.36516
-1.17339
-1.20166
-1.56737
-2.14295
-2.61953
-2.73586
-2.63252
-2.47343
-2.40827
-0.907206
-0.870872
-0.811963
-0.74692
-0.683273
-0.628176
-0.595065
-0.614172
-0.761723
-1.27995
-2.02541
-1.74006
-1.56715
-1.89015
-2.67416
-3.63045
-3.83451
-3.49427
-3.11162
-2.95298
-0.905738
-0.868422
-0.808469
-0.742235
-0.677126
-0.620543
-0.586979
-0.610355
-0.789892
-1.46217
-2.52708
-2.11309
-1.55965
-1.63665
-2.14892
-2.82862
-2.91588
-2.48364
-2.08833
-1.92536
-0.900146
-0.861621
-0.800382
-0.732464
-0.664935
-0.604861
-0.566311
-0.582929
-0.756438
-1.4298
-2.51308
-1.8266
-0.973609
-0.4675
-0.281289
-0.287979
-0.251112
-0.0486319
0.0859607
0.13211
-0.890501
-0.850658
-0.787731
-0.717659
-0.646841
-0.581417
-0.533209
-0.529405
-0.64747
-1.13045
-1.81383
-1.03084
-0.151505
0.495381
0.905797
1.16308
1.3162
1.38305
1.40683
1.41076
-0.876709
-0.835807
-0.770797
-0.698345
-0.623673
-0.551576
-0.490454
-0.457344
-0.49243
-0.68759
-0.821694
-0.183309
0.473793
0.969142
1.2964
1.51293
1.63627
1.69763
1.72175
1.72496
-0.857894
-0.816511
-0.750062
-0.675068
-0.596568
-0.517663
-0.443076
-0.380114
-0.338994
-0.311976
-0.140254
0.292038
0.745557
1.09203
1.31792
1.46811
1.56347
1.62087
1.6503
1.65619
-0.833661
-0.792353
-0.725154
-0.648241
-0.566485
-0.481855
-0.395965
-0.309505
-0.217485
-0.0861846
0.160557
0.484261
0.791549
1.0333
1.1996
1.31402
1.39289
1.44659
1.47627
1.48292
-0.801279
-0.761072
-0.694685
-0.61681
-0.533366
-0.445141
-0.351814
-0.250822
-0.132426
0.0338456
0.271261
0.526315
0.74931
0.924887
1.05371
1.14727
1.21551
1.2643
1.28966
1.29649
-0.75522
-0.717989
-0.656144
-0.578899
-0.495859
-0.406867
-0.310846
-0.203876
-0.0765549
0.0922997
0.301256
0.50407
0.674246
0.808547
0.911218
0.989053
1.0481
1.09127
1.11521
1.12269
-0.694678
-0.662341
-0.60347
-0.530998
-0.451484
-0.365575
-0.271462
-0.165779
-0.0412313
0.115587
0.292715
0.453841
0.585632
0.689901
0.771401
0.835075
0.88431
0.920467
0.943526
0.950993
-0.608698
-0.587337
-0.534479
-0.469201
-0.397012
-0.318268
-0.231157
-0.133014
-0.0188423
0.118994
0.264915
0.391134
0.491163
0.569438
0.630328
0.678175
0.716127
0.744587
0.761836
0.76648
-0.485705
-0.475082
-0.438433
-0.387497
-0.329116
-0.263559
-0.189111
-0.10378
-0.00414808
0.11401
0.236102
0.338988
0.419216
0.480584
0.526992
0.561758
0.587613
0.607369
0.620346
0.623461
-0.352728
-0.348596
-0.326674
-0.293048
-0.251936
-0.202674
-0.144031
-0.0743036
0.00884773
0.107815
0.209211
0.293228
0.357493
0.40552
0.44057
0.465538
0.482969
0.494427
0.500419
0.501816
-0.230505
-0.228315
-0.217718
-0.199004
-0.173566
-0.140192
-0.0975314
-0.0437368
0.0228028
0.103477
0.186012
0.253827
0.304845
0.341875
0.367955
0.385762
0.397214
0.403962
0.407185
0.40765
-0.130245
-0.130231
-0.126609
-0.118102
-0.104252
-0.0836161
-0.0542427
-0.0146071
0.036969
0.101325
0.16766
0.221668
0.261614
0.290107
0.309567
0.322073
0.329655
0.333813
0.335632
0.33566
-0.05835
-0.0591917
-0.0596953
-0.0575363
-0.0509423
-0.0385301
-0.0188337
0.00999962
0.0491432
0.0994306
0.15189
0.194544
0.22573
0.247345
0.261651
0.270681
0.2759
0.278469
0.279375
0.279314
-0.0123701
-0.0132416
-0.0149102
-0.015246
-0.0126141
-0.00549409
0.00766795
0.0284102
0.0582179
0.0971856
0.138189
0.171361
0.195363
0.21197
0.222887
0.229406
0.232935
0.23452
0.234994
0.234911
0.0153436
0.0147408
0.0133883
0.0127872
0.014196
0.0186543
0.0274557
0.0421337
0.0644028
0.0944521
0.126356
0.152209
0.170868
0.183592
0.1915
0.196184
0.198668
0.19969
0.199933
0.199858
0.0322725
0.0319174
0.0311059
0.0307356
0.0317235
0.0349478
0.0414028
0.0522025
0.0683835
0.0917628
0.116348
0.136212
0.150533
0.160018
0.165981
0.16946
0.171229
0.171901
0.172046
0.171985
0.0431643
0.0429577
0.0424764
0.0423028
0.0430582
0.0453823
0.0501004
0.0581798
0.0705214
0.0879286
0.107073
0.122425
0.133295
0.140538
0.145051
0.147642
0.148939
0.149418
0.149515
0.149466
0.0499687
0.0498493
0.0495646
0.0495213
0.0501715
0.0519809
0.055548
0.0616154
0.0709809
0.0842102
0.098719
0.110476
0.118781
0.12428
0.127694
0.129641
0.1306
0.130939
0.131003
0.130963
0.0537597
0.0536878
0.0535158
0.0535328
0.0540687
0.0554725
0.0582062
0.0628368
0.0699661
0.0800093
0.0910138
0.0999677
0.106314
0.110512
0.113105
0.114571
0.11528
0.115522
0.115563
0.11553
0.0552976
0.0552533
0.0551573
0.0552148
0.0556661
0.0567686
0.0588675
0.0623992
0.0678322
0.0754753
0.0838448
0.0906691
0.0955022
0.0986914
0.100653
0.101753
0.10228
0.102453
0.102478
0.10245
0.055175
0.0551461
0.0550945
0.055168
0.0555425
0.0564112
0.0580338
0.060741
0.0648849
0.0707016
0.077066
0.0822681
0.0859351
0.0883535
0.0898356
0.090663
0.0910533
0.0911756
0.0911892
0.0911661
0.0538065
0.0537863
0.0537579
0.0538311
0.0541352
0.0548155
0.0560683
0.0581422
0.0613057
0.0657401
0.0705909
0.0745368
0.0773225
0.0791544
0.080273
0.0808926
0.0811806
0.0812665
0.0812726
0.0812534
0.0514897
0.0514749
0.0514579
0.0515221
0.0517638
0.0522932
0.0532585
0.0548476
0.0572621
0.0606408
0.0643299
0.0673265
0.0694403
0.0708268
0.0716699
0.0721336
0.0723452
0.0724039
0.0724047
0.0723888
0.0484428
0.0484314
0.0484197
0.0484717
0.0486607
0.0490697
0.0498107
0.0510256
0.0528671
0.055439
0.0582437
0.0605169
0.0621183
0.0631652
0.0637987
0.0641442
0.0642989
0.0643387
0.0643366
0.0643236
0.0448325
0.0448234
0.0448142
0.0448544
0.0449995
0.0453127
0.0458791
0.0468057
0.0482078
0.0501632
0.0522908
0.0540122
0.0552228
0.0560122
0.0564876
0.0567446
0.0568572
0.056883
0.0568791
0.0568685
0.0407887
0.0407811
0.0407733
0.0408034
0.0409135
0.0411515
0.0415819
0.0422853
0.0433486
0.0448303
0.0464408
0.0477426
0.0486554
0.0492484
0.0496036
0.0497934
0.0498743
0.0498906
0.0498859
0.0498774
0.0364132
0.036407
0.0363999
0.0364213
0.0365033
0.0366821
0.0370062
0.037537
0.0383404
0.039459
0.0406728
0.0416522
0.0423379
0.0427813
0.0430449
0.0431838
0.0432411
0.0432501
0.0432448
0.043238
0.0317847
0.0317795
0.0317729
0.0317871
0.0318465
0.0319787
0.0322204
0.0326177
0.0332197
0.034058
0.0349661
0.0356976
0.036208
0.0365367
0.0367312
0.0368326
0.0368728
0.0368774
0.0368721
0.0368665
0.0269637
0.0269592
0.0269526
0.0269609
0.0270029
0.0270992
0.0272772
0.0275712
0.0280166
0.0286367
0.029309
0.029849
0.0302238
0.0304639
0.0306045
0.0306763
0.0307032
0.0307043
0.0306992
0.0306948
0.0219981
0.0219942
0.0219878
0.0219918
0.0220202
0.0220882
0.0222156
0.0224272
0.0227492
0.0231986
0.0236853
0.024076
0.0243469
0.0245192
0.0246185
0.0246675
0.0246839
0.0246819
0.0246767
0.0246733
0.0169249
0.0169215
0.0169151
0.0169153
0.0169327
0.0169782
0.0170654
0.0172118
0.0174358
0.0177494
0.0180893
0.0183612
0.0185486
0.0186665
0.0187331
0.0187648
0.0187738
0.0187701
0.0187652
0.0187624
0.0117733
0.0117705
0.0117643
0.0117621
0.0117713
0.0117989
0.0118542
0.0119483
0.012093
0.0122947
0.0125133
0.0126873
0.0128062
0.0128806
0.012922
0.0129403
0.0129435
0.0129386
0.0129341
0.0129321
0.00656504
0.00656296
0.00655774
0.0065544
0.0065579
0.00657171
0.00660034
0.00664952
0.00672532
0.0068324
0.00694786
0.00704054
0.00710384
0.00714282
0.00716354
0.0071714
0.00717082
0.00716549
0.00716162
0.00716022
0.00131848
0.00131807
0.00131623
0.00131423
0.00131259
0.00131381
0.00131764
0.00132494
0.00133681
0.00135485
0.00137777
0.00139934
0.00141483
0.00142458
0.00143004
0.00143253
0.00143241
0.00142979
0.00142751
0.00142658
-0.902828
-0.62713
-0.326222
-0.0851141
0.109739
0.268072
0.403536
0.518606
0.573796
0.54985
-0.415147
-0.233945
-0.0480119
0.110906
0.245816
0.359654
0.453131
0.520602
0.555831
0.565373
-0.0924028
0.0251463
0.147449
0.25619
0.350258
0.429417
0.492397
0.538167
0.569297
0.585132
0.126733
0.206014
0.291101
0.367601
0.434369
0.49069
0.536373
0.571789
0.598873
0.615793
0.288212
0.344973
0.404413
0.460614
0.510065
0.552702
0.58847
0.617375
0.640335
0.657319
0.414332
0.455906
0.501891
0.54564
0.585026
0.619777
0.649614
0.67409
0.693596
0.710474
0.520301
0.553778
0.593432
0.630459
0.664684
0.695304
0.721687
0.743286
0.759886
0.776758
0.617075
0.64926
0.686811
0.721891
0.754056
0.782817
0.807376
0.827035
0.841164
0.858157
0.717571
0.752627
0.791313
0.826752
0.858411
0.885895
0.908919
0.926966
0.939363
0.956788
0.835739
0.874501
0.914425
0.949792
0.980139
1.00573
1.02676
1.04314
1.05498
1.0731
0.982494
1.02181
1.05857
1.08992
1.11615
1.13875
1.15822
1.17407
1.18674
1.20481
1.15859
1.19081
1.21736
1.24014
1.26042
1.27943
1.29744
1.31413
1.32967
1.34779
1.34792
1.36536
1.38065
1.39711
1.41325
1.42793
1.44125
1.45533
1.473
1.49323
1.53021
1.53974
1.5514
1.56233
1.57176
1.58152
1.59242
1.60385
1.61523
1.6306
1.7375
1.7412
1.72632
1.71166
1.70556
1.71126
1.72982
1.76019
1.79237
1.81901
2.04398
1.90921
1.8327
1.7903
1.77276
1.77686
1.80424
1.86065
1.96339
2.1878
0.3082
0.306188
0.301761
0.293317
0.281339
0.269524
0.25965
0.252075
0.246698
0.243536
0.243028
0.245359
0.249953
0.256642
0.265512
0.276583
0.288869
0.299617
0.30561
0.308507
0.232106
0.238021
0.244557
0.249456
0.252317
0.252387
0.250039
0.246596
0.243358
0.241158
0.240818
0.242641
0.245769
0.249467
0.252705
0.25406
0.25263
0.248673
0.243112
0.236347
0.223376
0.225693
0.229502
0.233044
0.235602
0.237486
0.238601
0.238656
0.237911
0.237158
0.237159
0.238078
0.239302
0.239983
0.239569
0.238154
0.236045
0.233086
0.229274
0.22608
0.217511
0.21848
0.221026
0.224475
0.227398
0.229449
0.230823
0.231722
0.232226
0.232457
0.232722
0.233063
0.233146
0.232755
0.231851
0.230318
0.227942
0.224723
0.221548
0.219864
0.214674
0.215002
0.21658
0.219099
0.22155
0.223863
0.225825
0.227231
0.228148
0.228751
0.229157
0.229335
0.229095
0.228315
0.226882
0.224895
0.222616
0.220179
0.217993
0.217178
0.214
0.214138
0.214855
0.216083
0.217389
0.218772
0.220073
0.221349
0.222475
0.223343
0.223883
0.223973
0.2236
0.222846
0.221897
0.22075
0.219509
0.218337
0.217342
0.216996
0.212546
0.212608
0.213
0.213782
0.214739
0.215729
0.216877
0.218049
0.219111
0.220025
0.22067
0.220871
0.220639
0.220061
0.219227
0.218509
0.217712
0.216935
0.216387
0.216218
0.210124
0.21015
0.210339
0.210772
0.211309
0.212029
0.212849
0.213755
0.214739
0.215696
0.216466
0.216836
0.216821
0.216578
0.216259
0.215709
0.215374
0.214991
0.214742
0.214676
0.207143
0.207154
0.207282
0.2076
0.208055
0.208613
0.209294
0.210099
0.211022
0.212018
0.212942
0.213541
0.21379
0.213809
0.213685
0.213481
0.213248
0.213011
0.21287
0.212836
0.203802
0.203806
0.203892
0.204111
0.20445
0.204907
0.205514
0.206292
0.207251
0.208363
0.209492
0.210348
0.210844
0.211087
0.21117
0.211158
0.211096
0.211017
0.21097
0.210959
0.200092
0.200097
0.200159
0.200336
0.200622
0.201041
0.201629
0.202427
0.203464
0.204746
0.206148
0.207311
0.20809
0.20857
0.208851
0.208999
0.209065
0.209087
0.209097
0.209098
0.195995
0.195994
0.196065
0.196228
0.196507
0.196935
0.197562
0.198447
0.199643
0.201181
0.202933
0.204468
0.205538
0.206269
0.206736
0.207026
0.207197
0.207293
0.207342
0.207353
0.191484
0.191481
0.191555
0.191736
0.192043
0.192524
0.193243
0.19428
0.195714
0.197598
0.199799
0.201774
0.20321
0.204207
0.204872
0.205301
0.205568
0.205726
0.205806
0.205825
0.186509
0.186505
0.186592
0.186803
0.187166
0.187739
0.188605
0.189867
0.19163
0.193976
0.196752
0.199276
0.20114
0.202441
0.203323
0.203901
0.204266
0.204486
0.204598
0.204625
0.180968
0.180962
0.18107
0.18133
0.181777
0.182485
0.183559
0.18513
0.187334
0.19028
0.193784
0.196989
0.199362
0.201034
0.202171
0.20292
0.203397
0.203684
0.203831
0.203866
0.174724
0.174716
0.174853
0.175182
0.175747
0.17664
0.177995
0.179977
0.18276
0.18648
0.190906
0.194957
0.197958
0.200077
0.201521
0.202474
0.203081
0.203448
0.203635
0.20368
0.167588
0.167578
0.167755
0.168178
0.168902
0.170043
0.171772
0.174295
0.177831
0.182544
0.188135
0.193239
0.197015
0.199682
0.201499
0.202698
0.203463
0.203927
0.204163
0.204219
0.159303
0.159289
0.159522
0.160073
0.161012
0.162485
0.164709
0.167944
0.172458
0.178442
0.185499
0.191913
0.196646
0.199984
0.202258
0.20376
0.204719
0.2053
0.205596
0.205665
0.149517
0.149499
0.14981
0.150538
0.151768
0.153685
0.15657
0.160747
0.166535
0.174144
0.183043
0.191079
0.196988
0.20115
0.203985
0.205858
0.207057
0.207786
0.208157
0.208242
0.137748
0.137728
0.138152
0.139129
0.140757
0.143279
0.147053
0.152492
0.159944
0.169628
0.180826
0.190855
0.198203
0.203375
0.206898
0.209231
0.210729
0.211646
0.212113
0.212216
0.123325
0.123306
0.123903
0.125238
0.127422
0.13079
0.135831
0.142955
0.152579
0.164899
0.178938
0.191391
0.200482
0.206882
0.211252
0.214153
0.216027
0.217186
0.21778
0.217909
0.105255
0.105247
0.106122
0.107997
0.111005
0.115623
0.122412
0.131867
0.144365
0.160011
0.17751
0.19286
0.204035
0.211923
0.217335
0.220946
0.223293
0.224759
0.225522
0.22569
0.0819909
0.0820164
0.0833739
0.0861164
0.0904453
0.0969982
0.106377
0.119041
0.135293
0.155079
0.176707
0.195446
0.209066
0.218738
0.225441
0.22996
0.232921
0.234785
0.235771
0.235997
0.0510135
0.051154
0.0534015
0.0576873
0.0642984
0.0739696
0.0872034
0.104327
0.125446
0.150274
0.176707
0.199303
0.215723
0.2275
0.235806
0.241526
0.245352
0.2478
0.249107
0.249409
0.00780019
0.0082825
0.0125597
0.0200941
0.0309452
0.0457778
0.0647509
0.0879265
0.115133
0.145879
0.1777
0.204527
0.224044
0.238234
0.248494
0.255816
0.260924
0.264367
0.266258
0.266653
-0.0560039
-0.0537736
-0.0438111
-0.0292692
-0.0103841
0.0127013
0.039745
0.0706065
0.104982
0.142318
0.17989
0.211141
0.233916
0.250729
0.263235
0.272562
0.279473
0.284452
0.287467
0.287868
-0.132555
-0.128583
-0.110228
-0.0841097
-0.0546019
-0.0219712
0.0138409
0.0528544
0.0948906
0.139506
0.183804
0.220636
0.247854
0.268481
0.284431
0.296959
0.306975
0.314797
0.318387
0.320051
-0.210966
-0.200038
-0.172483
-0.136361
-0.0973325
-0.0556201
-0.0112496
0.0358201
0.0854626
0.137335
0.188373
0.230765
0.262271
0.286437
0.305473
0.320773
0.333201
0.343202
0.349415
0.352201
-0.268878
-0.256863
-0.224435
-0.181808
-0.135483
-0.0863203
-0.0345208
0.0197936
0.0764386
0.135048
0.192238
0.239394
0.27421
0.300713
0.321352
0.337674
0.350698
0.360996
0.36761
0.370527
-0.315037
-0.302708
-0.266911
-0.219785
-0.168328
-0.113555
-0.0557591
0.00475095
0.0675998
0.132254
0.194884
0.246083
0.283475
0.311554
0.33311
0.34993
0.363168
0.373516
0.380236
0.383028
-0.352619
-0.340451
-0.302709
-0.25221
-0.19676
-0.13752
-0.0748603
-0.00915848
0.0591027
0.129246
0.19693
0.251803
0.291403
0.320747
0.342957
0.36004
0.37331
0.38357
0.390274
0.392955
-0.384901
-0.372933
-0.333783
-0.280755
-0.222146
-0.159239
-0.0924345
-0.0221703
0.0509678
0.126136
0.198487
0.25677
0.298422
0.328917
0.351704
0.369024
0.382343
0.392558
0.399302
0.401918
-0.413431
-0.401629
-0.36151
-0.306495
-0.245336
-0.179369
-0.109022
-0.034787
0.0427231
0.122571
0.199466
0.261183
0.304937
0.336637
0.360057
0.377662
0.391068
0.401259
0.408043
0.410585
-0.439416
-0.427703
-0.386828
-0.330206
-0.266982
-0.198494
-0.125126
-0.0473475
0.0342046
0.118547
0.199966
0.265235
0.311244
0.344286
0.368442
0.386404
0.399953
0.410147
0.416971
0.419444
-0.463651
-0.451972
-0.410456
-0.352513
-0.287546
-0.216896
-0.140901
-0.0599732
0.0253032
0.113949
0.199928
0.268961
0.317481
0.35208
0.377128
0.395555
0.409307
0.419557
0.42636
0.428759
-0.486612
-0.474943
-0.432851
-0.37381
-0.307389
-0.234884
-0.156596
-0.072865
0.0158389
0.108648
0.199263
0.272343
0.323696
0.360134
0.386285
0.405314
0.419349
0.429698
0.436511
0.438854
-0.508709
-0.496941
-0.454315
-0.394362
-0.326721
-0.252638
-0.172366
-0.0861323
0.00573179
0.102543
0.19787
0.275289
0.329851
0.368481
0.396005
0.415817
0.430255
0.440759
0.447583
0.449881
-0.530089
-0.518169
-0.475012
-0.414331
-0.345621
-0.270206
-0.188239
-0.0998131
-0.00507402
0.0955476
0.195618
0.277654
0.335836
0.377066
0.406306
0.427145
0.44213
0.452882
0.45972
0.461991
-0.55077
-0.538694
-0.495059
-0.433754
-0.364147
-0.28762
-0.204225
-0.113918
-0.0166012
0.0876045
0.192379
0.279271
0.341467
0.385755
0.417118
0.439298
0.455034
0.46613
0.473021
0.475308
-0.570858
-0.558548
-0.514566
-0.45265
-0.382284
-0.304864
-0.220298
-0.128406
-0.0288322
0.0786979
0.188042
0.27994
0.346509
0.394322
0.428281
0.452178
0.468954
0.480582
0.487606
0.489789
-0.590247
-0.577786
-0.533433
-0.470963
-0.400001
-0.321871
-0.236385
-0.143215
-0.0417146
0.0688228
0.182556
0.27947
0.350673
0.402439
0.439543
0.465655
0.483803
0.496177
0.503424
0.505483
-0.608975
-0.596292
-0.551631
-0.488669
-0.417245
-0.338576
-0.252415
-0.158259
-0.0551676
0.0580248
0.17588
0.277693
0.353616
0.409728
0.450593
0.479574
0.499504
0.512769
0.520215
0.522105
-0.626861
-0.614074
-0.569063
-0.505714
-0.433949
-0.354896
-0.268298
-0.173441
-0.0691023
0.0463922
0.168006
0.27445
0.354997
0.415738
0.460954
0.49359
0.516008
0.530388
0.537877
0.53944
-0.644022
-0.631085
-0.585728
-0.522057
-0.450048
-0.370778
-0.283933
-0.188666
-0.0834072
0.0340174
0.15899
0.269651
0.354561
0.419883
0.469882
0.507157
0.533252
0.54919
0.556145
0.556895
-0.660307
-0.647239
-0.601568
-0.537646
-0.465466
-0.386135
-0.299238
-0.203808
-0.0979677
0.020997
0.148933
0.263347
0.352106
0.42147
0.476255
0.519196
0.550931
0.570265
0.575872
0.573734
-0.675781
-0.66254
-0.616544
-0.552421
-0.480174
-0.400904
-0.314129
-0.218782
-0.112658
0.00748981
0.137961
0.255588
0.347568
0.420074
0.47886
0.527877
0.567496
0.594622
0.602126
0.590946
-0.690382
-0.677001
-0.630751
-0.566506
-0.494348
-0.41534
-0.328929
-0.233999
-0.127979
-0.00707634
0.125512
0.2458
0.340292
0.415258
0.476336
0.530189
0.578434
0.617647
0.630818
0.626542
-0.704123
-0.690533
-0.644182
-0.579876
-0.507991
-0.429456
-0.343613
-0.249461
-0.143955
-0.0227682
0.111472
0.233767
0.329766