/*--------------------------------*- C++ -*----------------------------------*\
  =========                 |
  \\      /  F ield         | OpenFOAM: The Open Source CFD Toolbox
   \\    /   O peration     | Website:  https://openfoam.org
    \\  /    A nd           | Version:  9
     \\/     M anipulation  |
\*---------------------------------------------------------------------------*/
FoamFile
{
    format      ascii;
    class       volScalarField;
    location    "2";
    object      p;
}
// * * * * * * * * * * * * * * * * * * * * * * * * * * * * * * * * * * * * * //

dimensions      [0 2 -2 0 0 0 0];

internalField   nonuniform List<scalar> 
8800
(
1.16893
1.12232
1.08806
1.06209
1.04339
1.02987
1.0199
1.01255
1.00752
1.00513
1.00615
1.01017
1.01651
1.02519
1.03683
1.05272
1.07479
1.1051
1.14352
1.20241
1.0083
1.01562
1.02276
1.02542
1.02385
1.01911
1.01307
1.00717
1.0023
0.999089
0.998465
1.00079
1.00511
1.01071
1.01691
1.02257
1.026
1.02547
1.02091
1.01162
1.00124
1.00505
1.00765
1.00922
1.00918
1.0075
1.00461
1.00136
0.998558
0.997096
0.997803
1.0003
1.00364
1.00693
1.00938
1.01037
1.00956
1.00746
1.0045
1.00224
0.998438
0.998799
0.999395
0.999928
1.00005
0.999664
0.998677
0.997168
0.995619
0.994793
0.99533
0.996908
0.998738
1.00018
1.00096
1.00115
1.00084
1.00024
0.99976
0.999599
0.99011
0.99024
0.990329
0.990336
0.990182
0.989784
0.989108
0.988225
0.987351
0.986905
0.987353
0.988437
0.989615
0.990587
0.991241
0.991579
0.991677
0.991636
0.991532
0.991449
0.982421
0.982497
0.982562
0.982598
0.982565
0.982418
0.982128
0.981717
0.981312
0.981181
0.981585
0.982328
0.983075
0.983653
0.984014
0.98419
0.984238
0.984214
0.984163
0.984119
0.974763
0.974801
0.974831
0.974848
0.974837
0.974783
0.974674
0.974526
0.974414
0.974499
0.974913
0.975495
0.976033
0.976438
0.976698
0.976841
0.976903
0.976914
0.976899
0.976876
0.967204
0.967225
0.967249
0.967273
0.967293
0.967308
0.96732
0.967351
0.967437
0.967697
0.968163
0.968686
0.96913
0.969455
0.969667
0.969789
0.969849
0.969869
0.969866
0.969852
0.959657
0.959667
0.959689
0.959722
0.95977
0.959838
0.95994
0.960097
0.96035
0.960768
0.961327
0.961866
0.962291
0.962596
0.962795
0.962914
0.962978
0.963004
0.963009
0.962999
0.952053
0.952064
0.95209
0.952134
0.952208
0.952326
0.952506
0.952778
0.953182
0.953768
0.954457
0.955065
0.955532
0.955855
0.956067
0.956196
0.956267
0.956301
0.95631
0.956303
0.944354
0.944361
0.944393
0.944454
0.944558
0.944726
0.944987
0.945377
0.945941
0.94672
0.947588
0.948322
0.948862
0.949236
0.94948
0.94963
0.949716
0.949758
0.949774
0.949767
0.936508
0.936515
0.936554
0.936633
0.936772
0.936998
0.93735
0.937875
0.938624
0.939639
0.940739
0.941648
0.942308
0.942762
0.943057
0.94324
0.943345
0.943399
0.94342
0.943413
0.928455
0.928462
0.928513
0.928615
0.928796
0.929094
0.929557
0.930245
0.931222
0.932531
0.933931
0.935073
0.935897
0.936461
0.936828
0.937056
0.937187
0.937256
0.937283
0.937276
0.920129
0.920138
0.920203
0.920336
0.920571
0.920958
0.921559
0.922453
0.923716
0.925397
0.927183
0.928629
0.929668
0.930376
0.930837
0.931124
0.93129
0.931376
0.931411
0.931403
0.911444
0.911455
0.911539
0.911711
0.912017
0.912519
0.913299
0.914454
0.916082
0.91824
0.920519
0.922355
0.923669
0.924564
0.925146
0.925507
0.925717
0.925827
0.925872
0.925862
0.902289
0.902304
0.902414
0.902639
0.903036
0.903688
0.904699
0.906193
0.908291
0.911058
0.913966
0.916297
0.917963
0.919095
0.919831
0.920287
0.920552
0.92069
0.920746
0.920732
0.892519
0.89254
0.892685
0.892978
0.893497
0.894347
0.895661
0.897596
0.900301
0.903848
0.907556
0.910516
0.912624
0.914055
0.914984
0.91556
0.915894
0.916069
0.916139
0.916122
0.881941
0.88197
0.882162
0.882549
0.883231
0.884344
0.88606
0.888573
0.892065
0.896614
0.901335
0.905087
0.907752
0.909557
0.910729
0.911455
0.911875
0.912095
0.912183
0.912162
0.87029
0.870333
0.87059
0.871106
0.872011
0.873481
0.875733
0.87901
0.883527
0.889358
0.89536
0.900103
0.903464
0.905739
0.907214
0.908127
0.908657
0.908932
0.909043
0.909015
0.857199
0.857264
0.857615
0.858312
0.859529
0.86149
0.864472
0.868769
0.874625
0.882092
0.889699
0.895675
0.899899
0.902758
0.904614
0.905763
0.906429
0.906775
0.906914
0.906879
0.842146
0.842247
0.842739
0.843702
0.845366
0.848023
0.852014
0.857689
0.865299
0.874845
0.884443
0.891934
0.897225
0.900811
0.903145
0.904593
0.905434
0.905872
0.906047
0.906002
0.824353
0.82452
0.825232
0.826604
0.82894
0.832615
0.83804
0.845596
0.855505
0.867665
0.879694
0.889022
0.895619
0.900115
0.903058
0.904894
0.905965
0.906524
0.906748
0.906692
0.802602
0.802898
0.803985
0.806029
0.809436
0.814669
0.822187
0.832342
0.845245
0.860637
0.875568
0.887076
0.895254
0.900887
0.904623
0.906983
0.908376
0.909111
0.909409
0.909341
0.774856
0.775422
0.777215
0.780486
0.785743
0.793489
0.804131
0.817872
0.834615
0.853892
0.872171
0.886187
0.896242
0.903303
0.908107
0.911228
0.913121
0.914144
0.914569
0.914493
0.737395
0.738591
0.742004
0.74786
0.75658
0.768506
0.783802
0.802384
0.823875
0.847627
0.869596
0.88637
0.898575
0.907398
0.91366
0.917955
0.92073
0.922331
0.923036
0.922968
0.68233
0.685948
0.694168
0.705966
0.721214
0.739863
0.761746
0.786488
0.813513
0.842107
0.867878
0.88749
0.902007
0.912883
0.921043
0.92711
0.931489
0.934451
0.936034
0.936072
0.591043
0.612379
0.633155
0.656212
0.68149
0.709151
0.739043
0.770724
0.803619
0.837125
0.86664
0.889106
0.906119
0.919407
0.930041
0.938726
0.945954
0.951988
0.95702
0.960136
0.497758
0.540122
0.573536
0.607791
0.643165
0.679768
0.717434
0.755794
0.794323
0.832517
0.865637
0.890883
0.910342
0.926022
0.939076
0.950244
0.960003
0.968543
0.977356
0.983749
0.438865
0.48341
0.524124
0.566331
0.609666
0.65383
0.698375
0.742709
0.78611
0.82795
0.863317
0.889899
0.910359
0.926895
0.940644
0.952274
0.962233
0.970808
0.979057
0.984193
0.395247
0.442616
0.486877
0.533524
0.582134
0.631973
0.682107
0.731463
0.778862
0.823298
0.859598
0.886134
0.906251
0.922395
0.93576
0.947014
0.956605
0.964804
0.972619
0.977356
0.360502
0.409651
0.456858
0.507112
0.559891
0.614265
0.668973
0.722475
0.773027
0.81899
0.854895
0.880059
0.898714
0.913601
0.925978
0.936473
0.945475
0.953245
0.960537
0.964891
0.331342
0.382211
0.431844
0.485092
0.541422
0.599698
0.658384
0.71547
0.768563
0.815203
0.849535
0.872103
0.888259
0.901127
0.911994
0.921406
0.929634
0.936876
0.943646
0.947659
0.305819
0.358393
0.410203
0.466185
0.525715
0.58754
0.649868
0.710233
0.76553
0.812253
0.843975
0.862724
0.87529
0.885309
0.894102
0.902065
0.909328
0.915926
0.922148
0.925905
0.282428
0.336877
0.390736
0.44932
0.51189
0.577114
0.642951
0.706533
0.763958
0.810453
0.838705
0.85237
0.860121
0.866298
0.872323
0.878424
0.884473
0.890364
0.89582
0.899414
0.260579
0.316595
0.37258
0.433718
0.499268
0.567829
0.637197
0.704097
0.763833
0.810135
0.834277
0.841548
0.843021
0.844123
0.846488
0.850123
0.854586
0.859467
0.864432
0.867728
0.239099
0.297029
0.355094
0.418777
0.487277
0.559201
0.632188
0.702645
0.765089
0.811585
0.831293
0.830848
0.824303
0.818766
0.8163
0.816718
0.819159
0.822828
0.827127
0.830147
0.217985
0.277644
0.337855
0.404044
0.475513
0.550804
0.627536
0.701843
0.767586
0.815014
0.830426
0.82101
0.804378
0.790176
0.781368
0.777574
0.777436
0.779603
0.78312
0.785852
0.196622
0.258187
0.320492
0.389189
0.463605
0.542309
0.622887
0.701373
0.771083
0.820545
0.832337
0.812945
0.783802
0.758326
0.741154
0.731901
0.728479
0.728825
0.731405
0.733874
0.175009
0.238498
0.302862
0.374026
0.451335
0.533428
0.617932
0.700864
0.775234
0.828112
0.837661
0.807753
0.763335
0.723177
0.694964
0.678654
0.671252
0.669212
0.67096
0.673274
0.152704
0.218335
0.284806
0.358406
0.438559
0.523985
0.612406
0.69997
0.779652
0.837491
0.846896
0.806737
0.74403
0.684606
0.641677
0.616324
0.604195
0.600362
0.60119
0.603517
0.130016
0.197799
0.266338
0.342316
0.42522
0.51386
0.60614
0.6984
0.783875
0.848217
0.860283
0.811321
0.727295
0.642256
0.579359
0.542578
0.526127
0.521175
0.521747
0.524517
0.106954
0.17689
0.247474
0.325777
0.411309
0.503007
0.599
0.695889
0.787449
0.859664
0.877678
0.822994
0.715192
0.595351
0.503016
0.453641
0.434788
0.430991
0.433522
0.437888
0.0837841
0.15577
0.22832
0.308845
0.396882
0.491467
0.590913
0.692281
0.789969
0.871052
0.898499
0.842988
0.710533
0.543887
0.405492
0.338354
0.323356
0.329821
0.340139
0.348495
0.0606561
0.134566
0.209026
0.291653
0.382036
0.479294
0.581947
0.687473
0.791113
0.881579
0.92155
0.871913
0.717109
0.483576
0.269832
0.172935
0.180804
0.219914
0.252918
0.270262
0.0372335
0.113369
0.189738
0.274371
0.366888
0.466555
0.572125
0.681457
0.790669
0.89049
0.945209
0.909127
0.739797
0.417808
0.0559842
-0.104104
-0.022823
0.114057
0.206492
0.240446
0.0141466
0.092327
0.170618
0.257159
0.351598
0.453413
0.56156
0.674274
0.78847
0.897154
0.967595
0.952175
0.783017
0.349222
-0.337902
-0.690257
-0.379987
0.0365481
0.248592
0.285703
-0.00895873
0.0716192
0.151841
0.240035
0.336188
0.439954
0.550359
0.665943
0.78451
0.901213
0.987151
0.997552
0.849445
0.285098
-1.11669
-1.98616
-1.02063
-0.0744484
0.407504
0.565024
-0.0319449
0.0514198
0.133484
0.222936
0.320426
0.425877
0.538218
0.656192
0.778436
0.902148
1.00262
1.04123
0.936612
0.304014
-1.634
-3.09781
-1.84675
-0.559394
-0.0374451
0.0707894
-0.0544453
0.0323758
0.115796
0.206097
0.304666
0.41153
0.525234
0.645297
0.770467
0.899577
1.01147
1.07357
1.01528
0.507247
-1.08654
-2.16008
-1.58022
-0.941193
-0.508866
-0.246045
-0.0771079
0.0157578
0.0996257
0.190179
0.289643
0.397529
0.511811
0.633502
0.761006
0.89391
1.01301
1.08905
1.0613
0.729105
-0.211486
-0.866509
-0.75288
-0.54869
-0.421766
-0.310419
-0.189423
0.0021893
0.0840088
0.17405
0.273974
0.382542
0.498252
0.62101
0.749509
0.884193
1.00646
1.09049
1.09115
0.871038
0.3262
-0.109868
-0.311134
-0.318179
-0.300067
-0.276021
-0.0295769
-0.014397
0.0600721
0.149822
0.250663
0.360393
0.476922
0.600683
0.72941
0.863529
0.983245
1.0575
1.04854
0.891078
0.562882
0.21912
-0.0280377
-0.175658
-0.279326
-0.300953
-0.103039
-0.0363611
0.0398894
0.130605
0.232413
0.342835
0.460535
0.58408
0.71203
0.843864
0.95775
1.02164
1.00595
0.863768
0.588716
0.260885
-0.00980772
-0.209187
-0.367038
-0.397877
-0.143512
-0.0666394
0.0153542
0.108571
0.211672
0.322827
0.440837
0.564647
0.693796
0.825337
0.933428
0.985413
0.954726
0.81033
0.560699
0.230371
-0.0748248
-0.334902
-0.57862
-0.591638
-0.185167
-0.0986228
-0.0108893
0.0853864
0.189736
0.302319
0.422053
0.546894
0.673727
0.799163
0.898015
0.937542
0.895238
0.744667
0.496241
0.150027
-0.215796
-0.560738
-0.951586
-0.986132
-0.224455
-0.130947
-0.0386594
0.0605987
0.167196
0.281212
0.400769
0.524454
0.650731
0.77499
0.868521
0.898696
0.847479
0.697036
0.450074
0.10122
-0.349601
-0.810594
-1.37641
-1.80193
-0.261133
-0.163706
-0.0679514
0.0337861
0.142615
0.258115
0.379322
0.504372
0.629905
0.749626
0.835407
0.857733
0.801744
0.656232
0.406926
0.0763016
-0.405176
-1.00417
-1.41045
-1.89435
-0.296711
-0.197253
-0.098805
0.00590847
0.117133
0.234239
0.355964
0.480223
0.604042
0.721117
0.802646
0.821197
0.767218
0.634284
0.404084
0.0970629
-0.319282
-0.856186
-1.25963
-1.30636
-0.330734
-0.230691
-0.130589
-0.0242551
0.0885531
0.206944
0.329741
0.454604
0.578062
0.69285
0.770804
0.788185
0.741454
0.628268
0.448716
0.190747
-0.137612
-0.56081
-0.927131
-0.916037
-0.363412
-0.26422
-0.163796
-0.0558954
0.0586996
0.178595
0.30233
0.427418
0.55028
0.663578
0.740239
0.760538
0.726927
0.645552
0.523198
0.359621
0.155786
-0.061256
-0.175588
-0.154458
-0.397009
-0.298422
-0.197819
-0.0888936
0.0268885
0.148035
0.272958
0.398876
0.521997
0.634986
0.712577
0.739528
0.723856
0.67802
0.61578
0.549408
0.491595
0.46192
0.472946
0.498282
-0.433534
-0.334841
-0.233953
-0.123922
-0.0066279
0.116242
0.242641
0.369709
0.493494
0.607525
0.688257
0.725147
0.72935
0.715868
0.699029
0.690435
0.697639
0.724979
0.764705
0.783744
-0.474256
-0.373777
-0.271625
-0.160092
-0.0410839
0.0835929
0.211622
0.340117
0.465287
0.581742
0.667789
0.716496
0.739895
0.752245
0.764509
0.783105
0.809815
0.842514
0.874951
0.890092
-0.518372
-0.415382
-0.310871
-0.197297
-0.0762724
0.0504277
0.180307
0.310624
0.437938
0.557869
0.651152
0.711851
0.752047
0.783424
0.813224
0.844265
0.876352
0.907589
0.935014
0.948445
-0.564063
-0.458262
-0.35092
-0.234961
-0.111622
0.0172143
0.149186
0.281705
0.411808
0.536018
0.638148
0.710065
0.763698
0.808425
0.848721
0.886181
0.920696
0.951626
0.977688
0.98979
-0.609627
-0.500939
-0.390803
-0.272269
-0.146508
-0.015386
0.118893
0.253904
0.38722
0.516686
0.626711
0.709059
0.773227
0.827008
0.873723
0.914768
0.950565
0.981387
1.00667
1.01819
-0.652719
-0.541853
-0.429235
-0.30813
-0.179974
-0.0465488
0.0900555
0.227686
0.36444
0.499309
0.616582
0.707699
0.779687
0.839459
0.890102
0.933161
0.969638
1.00026
1.02488
1.03628
-0.692002
-0.579317
-0.464447
-0.341182
-0.210857
-0.0753343
0.0634219
0.203518
0.343529
0.483227
0.607099
0.704912
0.782418
0.846079
0.898999
0.943159
0.979859
1.01029
1.03416
1.04544
-0.725533
-0.61158
-0.494842
-0.369736
-0.237792
-0.100646
0.039768
0.18177
0.32439
0.468032
0.596992
0.699602
0.780851
0.846858
0.901069
0.94567
0.982364
1.01253
1.03559
1.04712
-0.750586
-0.636121
-0.518144
-0.392052
-0.259141
-0.121236
0.0198719
0.162846
0.306975
0.453084
0.585373
0.690929
0.774347
0.841627
0.896405
0.941129
0.977655
1.00751
1.02992
1.04162
-0.763943
-0.649872
-0.531787
-0.405719
-0.273101
-0.135789
0.00470292
0.14711
0.291086
0.437782
0.57129
0.677985
0.762174
0.829863
0.884738
0.929381
0.965716
0.995356
1.01736
1.02906
-0.762138
-0.648962
-0.532208
-0.407787
-0.277335
-0.142559
-0.00485323
0.134892
0.276565
0.421452
0.553792
0.659719
0.74335
0.810617
0.865174
0.909592
0.945764
0.975202
0.996804
1.00861
-0.738115
-0.629274
-0.515347
-0.394831
-0.269086
-0.13964
-0.00753263
0.126683
0.263232
0.403448
0.531894
0.634884
0.716429
0.782263
0.83594
0.879875
0.91586
0.945303
0.966883
0.97863
-0.683596
-0.582409
-0.475206
-0.362429
-0.245369
-0.125181
-0.00236515
0.122908
0.251024
0.383202
0.504611
0.602083
0.679472
0.742307
0.793987
0.836708
0.872087
0.90133
0.92287
0.935021
-0.590806
-0.499511
-0.405733
-0.306389
-0.203671
-0.0977442
0.0113527
0.123745
0.239785
0.360308
0.471195
0.559984
0.630315
0.687485
0.734774
0.774233
0.807206
0.834945
0.857373
0.869949
-0.440232
-0.374357
-0.301724
-0.224709
-0.143229
-0.0571239
0.0337652
0.12942
0.229801
0.335019
0.431733
0.508331
0.567946
0.615499
0.654148
0.685849
0.711492
0.731516
0.747237
0.755772
-0.217823
-0.195007
-0.161162
-0.118355
-0.0665868
-0.006028
0.0628765
0.139635
0.223579
0.31392
0.397795
0.463789
0.514114
0.552793
0.582604
0.60573
0.624171
0.63914
0.650247
0.655261
-0.0510588
-0.0462394
-0.035712
-0.0175446
0.00979444
0.0472855
0.0952404
0.153366
0.22087
0.296497
0.368207
0.424598
0.466767
0.498108
0.521066
0.537337
0.548063
0.554408
0.557684
0.558975
0.0332523
0.0350426
0.0404104
0.0506169
0.0670277
0.0911739
0.124408
0.167496
0.220376
0.282035
0.341741
0.388708
0.423227
0.448015
0.465248
0.476762
0.484106
0.488461
0.490637
0.491314
0.0833009
0.0846017
0.0879748
0.0944717
0.105375
0.122077
0.145956
0.17816
0.219242
0.268723
0.317576
0.356097
0.384097
0.403848
0.417332
0.426179
0.431671
0.434817
0.436388
0.436935
0.116041
0.117042
0.119469
0.124017
0.131649
0.143552
0.161032
0.185302
0.217153
0.256487
0.295953
0.327183
0.349751
0.36549
0.376081
0.382932
0.38715
0.389573
0.3908
0.39124
0.137154
0.13791
0.139693
0.143008
0.148584
0.157351
0.170399
0.188847
0.213554
0.244646
0.276257
0.30138
0.319485
0.332038
0.340432
0.345833
0.349146
0.351046
0.352011
0.352358
0.150146
0.150721
0.152061
0.154538
0.158701
0.165279
0.175158
0.189294
0.20849
0.232991
0.258168
0.278263
0.292735
0.30274
0.309408
0.313687
0.316307
0.31781
0.318574
0.318849
0.157195
0.157636
0.158654
0.160531
0.16369
0.168695
0.176251
0.187148
0.202092
0.221366
0.241338
0.257344
0.26888
0.276847
0.28215
0.285546
0.287624
0.288816
0.289422
0.289639
0.159809
0.160148
0.160929
0.162368
0.164788
0.168629
0.17445
0.182891
0.194547
0.209697
0.2255
0.238211
0.247382
0.253715
0.257927
0.260626
0.262278
0.263224
0.263703
0.263874
0.159061
0.159324
0.159926
0.161035
0.162903
0.165871
0.170379
0.176942
0.186048
0.197951
0.210432
0.220503
0.22778
0.232808
0.236152
0.238292
0.239599
0.240347
0.240728
0.240863
0.155743
0.155947
0.156414
0.157274
0.158721
0.161024
0.16453
0.169644
0.176767
0.186119
0.195964
0.203931
0.209694
0.213678
0.216327
0.218023
0.21906
0.219653
0.219953
0.220058
0.150443
0.150601
0.150964
0.151632
0.152758
0.154551
0.157283
0.161279
0.166857
0.174204
0.181962
0.188254
0.19281
0.195963
0.198061
0.199403
0.200222
0.200692
0.20093
0.201013
0.143607
0.143731
0.144014
0.144535
0.145413
0.146811
0.148945
0.152069
0.156439
0.162209
0.168318
0.173282
0.176881
0.179372
0.18103
0.182092
0.182742
0.183112
0.183299
0.183364
0.135579
0.135676
0.135896
0.136302
0.136988
0.138081
0.139749
0.142194
0.14562
0.150151
0.154957
0.158868
0.161707
0.163674
0.164982
0.165818
0.166327
0.166618
0.166766
0.166817
0.126621
0.126696
0.126869
0.127186
0.127722
0.128576
0.129881
0.131794
0.134479
0.138035
0.141813
0.14489
0.147126
0.148673
0.149703
0.150363
0.150767
0.150998
0.151114
0.151154
0.116937
0.116996
0.117131
0.117379
0.117797
0.118465
0.119486
0.120984
0.123088
0.125875
0.128841
0.131259
0.133015
0.134232
0.135044
0.135563
0.13588
0.136061
0.136153
0.136184
0.106688
0.106734
0.106838
0.107032
0.107359
0.107881
0.108678
0.109848
0.111493
0.113675
0.115999
0.117895
0.119275
0.120232
0.120868
0.121274
0.121522
0.121662
0.121733
0.121757
0.0959969
0.0960326
0.0961144
0.0962651
0.0965195
0.0969258
0.0975473
0.0984599
0.0997429
0.101447
0.103263
0.104746
0.105825
0.106572
0.10707
0.107388
0.107583
0.107693
0.107749
0.107769
0.0849617
0.0849893
0.0850528
0.0851694
0.0853664
0.0856817
0.0861647
0.0868742
0.0878714
0.0891959
0.0906069
0.0917589
0.092596
0.093176
0.0935629
0.0938109
0.0939631
0.0940501
0.0940931
0.0941076
0.07366
0.073681
0.0737295
0.07382
0.0739727
0.0742153
0.0745864
0.0751323
0.0759
0.0769205
0.0780092
0.0788996
0.0795481
0.0799988
0.0802993
0.0804905
0.080606
0.080672
0.0807056
0.0807169
0.0621512
0.0621678
0.0622056
0.0622745
0.0623902
0.062575
0.0628576
0.0632731
0.0638573
0.0646339
0.0654627
0.0661403
0.0666341
0.0669759
0.0672025
0.0673487
0.0674388
0.0674897
0.0675154
0.0675247
0.0504889
0.0505007
0.0505283
0.0505796
0.0506659
0.050804
0.0510148
0.051324
0.0517591
0.052337
0.0529531
0.0534563
0.0538222
0.0540762
0.0542458
0.0543541
0.0544202
0.0544581
0.0544766
0.0544827
0.0387081
0.0387171
0.0387375
0.0387748
0.0388369
0.0389355
0.0390855
0.0393058
0.0396155
0.0400271
0.0404669
0.0408276
0.041092
0.0412764
0.0413988
0.0414763
0.0415234
0.0415502
0.0415639
0.0415685
0.026848
0.0268561
0.0268703
0.0268953
0.0269363
0.0270016
0.0271007
0.027245
0.0274474
0.0277168
0.0280054
0.028242
0.0284131
0.0285318
0.0286126
0.0286659
0.0286985
0.0287165
0.0287252
0.0287284
0.0149358
0.0149395
0.0149485
0.0149622
0.0149861
0.0150217
0.0150746
0.0151518
0.01526
0.0154032
0.0155556
0.0156802
0.0157717
0.0158348
0.0158755
0.0159011
0.0159177
0.0159285
0.0159351
0.0159378
0.00298581
0.00298456
0.00298383
0.00298525
0.00298789
0.00299222
0.00299991
0.00301186
0.00302924
0.00305365
0.00308456
0.00311364
0.00313567
0.00315119
0.00316304
0.00317165
0.00317716
0.00318055
0.00318276
0.0031842
-0.822179
-0.62659
-0.444863
-0.329723
-0.243212
-0.167395
-0.0668108
0.105423
0.361625
0.352676
-0.502315
-0.37369
-0.269693
-0.175668
-0.0872347
0.00767335
0.11857
0.235901
0.326718
0.320177
-0.254688
-0.172535
-0.0943599
-0.0160916
0.0608897
0.138782
0.214326
0.276955
0.311788
0.323089
-0.0586231
-0.00151713
0.0570004
0.116726
0.174303
0.228306
0.275122
0.31022
0.333548
0.352835
0.0948492
0.135463
0.177954
0.220966
0.261381
0.297799
0.329029
0.353901
0.375101
0.395926
0.215574
0.243848
0.275676
0.306698
0.335604
0.362
0.385538
0.406219
0.425554
0.446002
0.314543
0.336165
0.35943
0.382712
0.404834
0.425676
0.44505
0.462867
0.479714
0.497859
0.400403
0.417136
0.435455
0.453987
0.472235
0.489804
0.505999
0.520737
0.53422
0.547082
0.479608
0.493015
0.509379
0.526453
0.543253
0.558381
0.571105
0.581032
0.586542
0.588913
0.547475
0.561765
0.578583
0.595221
0.610755
0.624222
0.63469
0.640361
0.640311
0.636925
0.607264
0.630171
0.656733
0.682172
0.704203
0.720774
0.730435
0.731478
0.724113
0.720726
0.69749
0.743676
0.780127
0.804744
0.821649
0.834009
0.843329
0.84932
0.849048
0.855752
0.854069
0.880619
0.899682
0.917487
0.934581
0.949607
0.96213
0.973616
0.988539
1.00745
1.05407
1.06583
1.07973
1.09231
1.10177
1.11006
1.11884
1.12887
1.13928
1.15397
1.26051
1.26488
1.25184
1.23814
1.23204
1.23779
1.25634
1.28551
1.31567
1.34177
1.56881
1.43458
1.3576
1.3148
1.29742
1.30139
1.32793
1.38391
1.48678
1.71088
1.05759
1.06016
1.05897
1.05201
1.04179
1.03146
1.02236
1.01488
1.00918
1.00552
1.00481
1.00741
1.01234
1.01908
1.02749
1.03736
1.04791
1.05705
1.06102
1.05839
1.0003
1.00439
1.00858
1.01043
1.01034
1.00855
1.00519
1.0011
0.997259
0.994606
0.994086
0.996069
0.999634
1.00386
1.00781
1.0105
1.01146
1.01067
1.00774
1.00295
1.00196
1.00294
1.00472
1.0062
1.00691
1.00658
1.00522
1.0032
1.00095
0.999261
0.998985
1.00039
1.00268
1.00507
1.00693
1.00791
1.00771
1.00662
1.00489
1.00337
0.993942
0.993967
0.994051
0.994158
0.994152
0.993894
0.993273
0.992241
0.991028
0.990055
0.989966
0.990958
0.992397
0.993744
0.994706
0.995209
0.995389
0.995342
0.995239
0.995189
0.986316
0.986389
0.98649
0.986567
0.986563
0.986413
0.986068
0.985523
0.984877
0.984377
0.984431
0.985147
0.986098
0.986953
0.987561
0.987905
0.988034
0.988023
0.98794
0.987852
0.978567
0.978597
0.978639
0.978671
0.978673
0.978617
0.978476
0.978243
0.977971
0.977809
0.977995
0.978566
0.979224
0.97978
0.980167
0.980392
0.980496
0.980523
0.980507
0.980478
0.97098
0.970995
0.971021
0.971045
0.971059
0.971054
0.971023
0.970971
0.97093
0.970998
0.971306
0.971826
0.972349
0.97277
0.973061
0.973237
0.973328
0.973364
0.973365
0.973351
0.963432
0.963437
0.963458
0.963483
0.963514
0.963552
0.963602
0.963676
0.963802
0.964047
0.96448
0.965021
0.965502
0.96587
0.966123
0.96628
0.966367
0.966408
0.966418
0.966413
0.955866
0.955872
0.955887
0.955916
0.955964
0.956039
0.956154
0.956328
0.956594
0.957
0.957576
0.958194
0.958695
0.959071
0.959325
0.959484
0.959575
0.959621
0.959638
0.959638
0.948217
0.948217
0.948238
0.948278
0.948347
0.94846
0.948637
0.948908
0.949308
0.949883
0.950631
0.951374
0.951958
0.952373
0.952654
0.952833
0.952938
0.952994
0.953017
0.95302
0.940453
0.940451
0.940474
0.940524
0.940617
0.940771
0.941017
0.941391
0.941939
0.942707
0.943671
0.944595
0.945298
0.945794
0.946127
0.946339
0.946465
0.946534
0.946566
0.946572
0.932511
0.932508
0.932536
0.932601
0.932721
0.932926
0.933252
0.933748
0.934471
0.935474
0.936712
0.937875
0.938747
0.93936
0.93977
0.940031
0.940188
0.940274
0.940314
0.940322
0.924331
0.924326
0.924362
0.924445
0.924603
0.924869
0.925295
0.925943
0.926883
0.928179
0.929763
0.931239
0.932336
0.933104
0.933616
0.933943
0.934139
0.934248
0.934299
0.934311
0.915837
0.915831
0.915877
0.915985
0.916189
0.916535
0.917087
0.917927
0.919143
0.920811
0.922839
0.924716
0.926105
0.927074
0.92772
0.928131
0.928378
0.928515
0.928581
0.928597
0.906933
0.906925
0.906984
0.907125
0.90739
0.907839
0.908557
0.909643
0.911212
0.913358
0.915953
0.918341
0.920102
0.921329
0.922146
0.922665
0.922977
0.923151
0.923234
0.923254
0.897492
0.897481
0.897559
0.897743
0.898089
0.898674
0.899606
0.901014
0.903041
0.905799
0.909117
0.912157
0.91439
0.915943
0.916975
0.91763
0.918024
0.918243
0.918348
0.918373
0.887346
0.887333
0.887436
0.887678
0.888131
0.888897
0.890113
0.891943
0.894565
0.898113
0.902353
0.906217
0.909046
0.911008
0.912311
0.913137
0.913635
0.913911
0.914043
0.914074
0.876269
0.876254
0.876392
0.876714
0.877313
0.878323
0.879918
0.882306
0.885707
0.890274
0.895689
0.900591
0.904168
0.906644
0.908285
0.909327
0.909953
0.9103
0.910465
0.910504
0.863953
0.863936
0.864124
0.864558
0.865359
0.866702
0.868811
0.871948
0.876373
0.882256
0.88916
0.895363
0.89987
0.902987
0.905053
0.906363
0.90715
0.907587
0.907794
0.907843
0.849959
0.849942
0.850204
0.850799
0.851889
0.853702
0.856523
0.860674
0.866458
0.87404
0.882819
0.890635
0.896293
0.900204
0.902799
0.904449
0.90544
0.90599
0.906251
0.906311
0.833655
0.833643
0.834021
0.83486
0.836376
0.838871
0.842702
0.848255
0.855852
0.865621
0.876736
0.886526
0.893593
0.898488
0.901748
0.903827
0.905082
0.905779
0.90611
0.906187
0.81408
0.814086
0.814657
0.815887
0.81807
0.8216
0.826915
0.83444
0.84447
0.857029
0.871002
0.883163
0.891931
0.898039
0.902142
0.904782
0.906387
0.907284
0.907713
0.907814
0.789669
0.789734
0.790667
0.792586
0.795893
0.801091
0.808669
0.819014
0.832295
0.848356
0.86574
0.880666
0.891442
0.899035
0.904223
0.907623
0.909727
0.910922
0.911504
0.91165
0.757566
0.757839
0.759605
0.762921
0.768331
0.776397
0.787526
0.801909
0.819463
0.839786
0.861087
0.879116
0.892187
0.901567
0.908162
0.912643
0.915527
0.917234
0.918111
0.918372
0.711864
0.712978
0.71725
0.723901
0.733581
0.746711
0.763359
0.783348
0.806283
0.831555
0.857132
0.878464
0.89403
0.905479
0.913864
0.919902
0.924099
0.926863
0.928516
0.92919
0.643192
0.646571
0.65829
0.672778
0.690838
0.712347
0.736903
0.764062
0.793282
0.823915
0.853843
0.878442
0.896534
0.910206
0.920698
0.9288
0.935051
0.939875
0.94374
0.945333
0.554046
0.564901
0.589572
0.616972
0.646446
0.677785
0.710839
0.745344
0.780845
0.816779
0.85103
0.879013
0.899926
0.91628
0.92947
0.940314
0.949354
0.956982
0.963237
0.965421
0.472296
0.493129
0.528638
0.566539
0.605718
0.645928
0.686946
0.728407
0.769772
0.810443
0.848245
0.878684
0.901446
0.919477
0.934296
0.946726
0.95719
0.965974
0.973159
0.976786
0.422064
0.44405
0.4833
0.526445
0.571852
0.618662
0.666128
0.713486
0.759856
0.804336
0.844472
0.87595
0.899149
0.917406
0.932341
0.944776
0.955159
0.963788
0.970769
0.974497
0.382384
0.405964
0.448288
0.495138
0.544863
0.596496
0.649026
0.701238
0.751731
0.799066
0.840302
0.871409
0.893724
0.911077
0.925239
0.937056
0.946965
0.955228
0.96196
0.965803
0.350202
0.374831
0.419539
0.469377
0.522677
0.578354
0.635144
0.691455
0.745354
0.794722
0.835939
0.865368
0.885627
0.901159
0.913883
0.924642
0.933801
0.941555
0.947969
0.951861
0.322353
0.348222
0.395096
0.447579
0.503998
0.563213
0.623791
0.683763
0.740634
0.791475
0.831743
0.858268
0.875325
0.888115
0.898751
0.908015
0.916167
0.923249
0.929273
0.933118
0.297493
0.324519
0.373462
0.428425
0.48773
0.550264
0.614372
0.677812
0.737477
0.789497
0.828129
0.850592
0.863225
0.872232
0.880024
0.887304
0.894128
0.900374
0.905903
0.90961
0.274444
0.302697
0.353576
0.410933
0.473055
0.538762
0.606353
0.673235
0.735754
0.788969
0.825549
0.84286
0.849701
0.853696
0.8577
0.862352
0.867468
0.872663
0.877566
0.8811
0.252502
0.28189
0.334706
0.394413
0.459288
0.528171
0.599235
0.669684
0.735298
0.790008
0.824472
0.835673
0.835189
0.832642
0.831647
0.832834
0.835712
0.839546
0.843699
0.846961
0.230841
0.261482
0.316255
0.37832
0.445933
0.517979
0.592605
0.666787
0.735895
0.792667
0.825382
0.829725
0.820221
0.809217
0.801661
0.798292
0.798263
0.800368
0.80358
0.806534
0.209251
0.241064
0.29787
0.362263
0.432605
0.50783
0.586052
0.6642
0.737241
0.796914
0.828678
0.82582
0.805471
0.783652
0.76747
0.758135
0.754325
0.754236
0.756275
0.758823
0.187449
0.220547
0.279313
0.345983
0.419029
0.497414
0.579295
0.661568
0.73903
0.802547
0.834723
0.824887
0.791852
0.75626
0.728735
0.711563
0.702952
0.70015
0.700787
0.702929
0.165326
0.199634
0.260384
0.329336
0.405037
0.486534
0.572048
0.658562
0.740864
0.809288
0.843637
0.827882
0.780544
0.727456
0.684933
0.657481
0.642846
0.63692
0.636106
0.637996
0.142622
0.178306
0.241033
0.312225
0.390529
0.475062
0.564146
0.65493
0.742358
0.816668
0.855364
0.835753
0.773033
0.697827
0.635139
0.594009
0.572409
0.563436
0.561727
0.563219
0.119662
0.15661
0.221305
0.294678
0.375502
0.462945
0.55546
0.650427
0.743155
0.824165
0.869526
0.849264
0.77121
0.668137
0.577244
0.518012
0.489401
0.47901
0.477465
0.479569
0.0963692
0.134598
0.201257
0.27678
0.359996
0.450183
0.545974
0.644966
0.742937
0.831169
0.885444
0.868811
0.777301
0.639786
0.507058
0.423024
0.387898
0.380445
0.383886
0.389679
0.0731766
0.112499
0.181039
0.258619
0.344137
0.436879
0.53566
0.638437
0.741469
0.837137
0.902098
0.894158
0.79382
0.614793
0.419645
0.293247
0.255011
0.265024
0.286275
0.302469
0.049786
0.0903658
0.160741
0.240318
0.327984
0.42311
0.524654
0.630856
0.738619
0.841564
0.918343
0.924187
0.823009
0.597556
0.302458
0.0927494
0.0602842
0.128906
0.201134
0.238223
0.0264205
0.0682995
0.140563
0.22205
0.311692
0.408982
0.513049
0.622331
0.73434
0.844106
0.932976
0.95676
0.865849
0.595335
0.131145
-0.271316
-0.276787
-0.049096
0.149842
0.235779
0.00319926
0.0464204
0.120694
0.204046
0.295436
0.394623
0.500914
0.612947
0.728734
0.844561
0.944923
0.988909
0.920432
0.617483
-0.144812
-1.07831
-1.00442
-0.285787
0.197882
0.379218
-0.0198855
0.0247741
0.101203
0.186204
0.279074
0.379915
0.488094
0.602448
0.721554
0.842769
0.953779
1.01893
0.98429
0.681949
-0.486372
-2.49175
-2.26157
-0.747197
0.110322
0.397447
-0.042736
0.00367202
0.0825212
0.16868
0.26264
0.364843
0.474678
0.590883
0.712679
0.838314
0.958361
1.04264
1.04394
0.788604
-0.383954
-2.4615
-2.44875
-1.36143
-0.601995
-0.255732
-0.0652646
-0.0159906
0.0648915
0.151513
0.246154
0.349375
0.460676
0.57848
0.70214
0.830814
0.957672
1.05624
1.08541
0.90913
0.0833359
-1.2209
-1.33653
-0.92857
-0.614347
-0.400171
-0.0911961
-0.0314283
0.0486582
0.134748
0.229844
0.334
0.445873
0.565284
0.69033
0.82093
0.951348
1.05708
1.1013
0.993663
0.498564
-0.21566
-0.496491
-0.459923
-0.364533
-0.324827
-0.0295366
-0.00419764
0.072823
0.162526
0.262785
0.371919
0.490183
0.613373
0.74223
0.876951
0.999219
1.08231
1.08519
0.903946
0.466078
0.0810181
-0.136809
-0.236216
-0.269999
-0.273473
-0.0580256
-0.0377265
0.025041
0.108006
0.203535
0.308759
0.422325
0.54275
0.669005
0.800995
0.931934
1.03618
1.08076
1.00908
0.740619
0.353296
0.0519594
-0.126005
-0.224844
-0.289172
-0.0824666
-0.0529966
0.0107349
0.0934135
0.189306
0.294863
0.407998
0.528666
0.655559
0.787573
0.91613
1.01334
1.04619
0.97053