/*--------------------------------*- C++ -*----------------------------------*\
  =========                 |
  \\      /  F ield         | OpenFOAM: The Open Source CFD Toolbox
   \\    /   O peration     | Website:  https://openfoam.org
    \\  /    A nd           | Version:  9
     \\/     M anipulation  |
\*---------------------------------------------------------------------------*/
FoamFile
{
    format      ascii;
    class       surfaceScalarField;
    location    "2";
    object      phi;
}
// * * * * * * * * * * * * * * * * * * * * * * * * * * * * * * * * * * * * * //

dimensions      [0 3 -1 0 0 0 0];

internalField   nonuniform List<scalar> 
17370
(
-0.0896967
0.0939094
0.284798
-0.0764609
0.0589239
0.364312
-0.0431147
0.0322495
0.427033
-0.0234351
0.0176283
0.505059
-0.0130372
0.0100687
0.602371
-0.00769838
0.00613514
0.720621
-0.00481471
0.0038891
0.863832
-0.00303978
0.00238763
1.0361
-0.00172266
0.00115423
1.24307
-0.000536686
-2.79634e-05
1.49176
0.000623299
-0.00123751
1.49181
0.00179723
-0.00244721
1.24334
0.00309302
-0.0039335
1.03648
0.00485645
-0.00617009
0.86422
0.00773107
-0.0100997
0.721426
0.0130652
-0.0176504
0.6038
0.0234516
-0.032262
0.50825
0.0431252
-0.0589366
0.43198
0.0764764
-0.0939225
0.364222
0.089703
0.199308
-0.139923
0.114988
0.0249354
-0.36264
0.358369
-0.0401844
0.0444548
-0.441139
0.441604
-0.0452029
0.0447378
-0.517548
0.519844
-0.0434726
0.0411772
-0.610984
0.615014
-0.0381033
0.0340729
-0.726438
0.730869
-0.0300103
0.0255799
-0.867702
0.87154
-0.0217193
0.0178807
-1.03905
1.04211
-0.0147147
0.0116522
-1.24545
1.24802
-0.00907272
0.00650407
-1.49373
1.49609
-0.00427267
0.00191372
-1.49358
1.49581
0.000318493
-0.00254027
-1.24486
1.24705
0.00488562
-0.00707652
-1.03819
1.04073
0.00960269
-0.0121432
-0.866538
0.869663
0.0151633
-0.018289
-0.724441
0.728256
0.0220812
-0.0258964
-0.607929
0.611946
0.0302732
-0.0342897
-0.51272
0.515764
0.0382884
-0.0413325
-0.435953
0.437202
0.0436145
-0.0448631
-0.370106
0.36933
0.0453079
-0.0445324
-0.264893
0.249615
0.0402336
-0.0249558
-0.105023
0.103129
0.00189401
-0.0127357
0.0177827
-0.36623
0.361183
-0.0221034
0.0247503
-0.436648
0.434001
-0.0261968
0.0265355
-0.516698
0.51636
-0.0259711
0.0249154
-0.613869
0.614925
-0.0231497
0.0211621
-0.730801
0.732788
-0.0186439
0.0161966
-0.872459
0.874906
-0.0133878
0.0108184
-1.04349
1.04606
-0.00795341
0.00532114
-1.24978
1.25241
-0.00224516
-0.000690471
-1.49866
1.5016
0.0036288
-0.00661576
-1.499
1.50199
0.0092314
-0.0120532
-1.25079
1.25362
0.0145335
-0.0172505
-1.04498
1.0477
0.0196188
-0.0220453
-0.874287
0.876713
0.0239514
-0.0256357
-0.733147
0.734832
0.0266316
-0.0271151
-0.616457
0.616941
0.0267012
-0.025169
-0.520094
0.518561
0.0224405
-0.0180307
-0.439576
0.435166
0.0129027
-0.00680605
-0.352422
0.346325
0.00192741
-0.104957
0.10303
-0.103561
0.103484
7.71187e-05
-0.00251696
0.00450704
-0.357607
0.355617
-0.00681382
0.00879322
-0.431205
0.429226
-0.0107378
0.0121851
-0.515063
0.513615
-0.0133841
0.0140675
-0.615075
0.614392
-0.0143227
0.0140538
-0.73386
0.734129
-0.0132584
0.0121175
-0.876538
0.877679
-0.010497
0.00873489
-1.04808
1.04984
-0.00657114
0.0043998
-1.2547
1.25687
-0.00177458
-0.000846219
-1.50434
1.50696
0.00341964
-0.0059947
-1.50471
1.50728
0.00815605
-0.0103203
-1.25598
1.25814
0.0119852
-0.0134657
-1.04957
1.05106
0.0144843
-0.0151476
-0.878117
0.878781
0.015295
-0.0149116
-0.735514
0.73513
0.0141248
-0.0128085
-0.616251
0.614934
0.0112631
-0.00922236
-0.51614
0.514099
0.0071648
-0.00477896
-0.431337
0.428951
0.00271781
-0.000928259
-0.342959
0.34117
0.000114628
-0.10345
0.103335
-0.103178
0.10296
0.000218424
-0.00149716
0.00237108
-0.354357
0.353483
-0.00340019
0.00435057
-0.427868
0.426917
-0.00534957
0.00619247
-0.512476
0.511633
-0.00698041
0.00750847
-0.613764
0.613235
-0.00783991
0.00790598
-0.734165
0.734099
-0.00768566
0.00721518
-0.87841
0.87888
-0.00639265
0.00538273
-1.05117
1.05218
-0.00399397
0.0024938
-1.25869
1.26019
-0.000687699
-0.00110966
-1.50915
1.51095
0.00288319
-0.00461168
-1.5094
1.51113
0.00595755
-0.00715047
-1.25978
1.26097
0.00804432
-0.00871041
-1.05205
1.05271
0.00903283
-0.00908818
-0.879051
0.879107
0.00887113
-0.00837526
-0.734655
0.734159
0.00770728
-0.00680633
-0.613822
0.612921
0.00586895
-0.0047714
-0.512624
0.511527
0.00373768
-0.00262446
-0.427396
0.426283
0.00167571
-0.000803635
-0.339974
0.339102
0.000249202
-0.102979
0.10273
-0.102812
0.102696
0.000115746
-0.000777955
0.00119013
-0.352883
0.35247
-0.00167286
0.00212965
-0.42626
0.425803
-0.00263399
0.00307947
-0.511017
0.510572
-0.00352636
0.00386119
-0.612808
0.612473
-0.00412418
0.00424305
-0.733984
0.733865
-0.00421083
0.00401015
-0.879181
0.879381
-0.00358111
0.00299231
-1.05295
1.05354
-0.00212641
0.00114659
-1.26141
1.26239
7.26909e-05
-0.00131238
-1.51244
1.51368
0.00252642
-0.00365494
-1.51253
1.51366
0.00447083
-0.00511138
-1.26184
1.26248
0.0055207
-0.00576191
-1.05313
1.05337
0.00578657
-0.00562544
-0.87902
0.878859
0.00533272
-0.00488657
-0.733673
0.733227
0.00439373
-0.0037938
-0.612184
0.611584
0.00321859
-0.00258092
-0.510696
0.510058
0.00200972
-0.00141094
-0.425474
0.424875
0.000907948
-0.000437942
-0.338467
0.337997
0.000134649
-0.102569
0.102434
-0.102616
0.102566
5.00914e-05
-0.000358023
0.000557754
-0.352182
0.351982
-0.000792686
0.00101541
-0.425482
0.42526
-0.00126208
0.00148199
-0.510254
0.510035
-0.00170525
0.00187837
-0.612224
0.612051
-0.00201711
0.00208009
-0.733769
0.733706
-0.00205732
0.00193396
-0.879529
0.879652
-0.001667
0.00129198
-1.054
1.05438
-0.000730571
8.59173e-05
-1.26318
1.26382
0.000737092
-0.00157213
-1.5147
1.51554
0.00236749
-0.00307272
-1.51456
1.51526
0.0035483
-0.00388136
-1.26295
1.26328
0.00404172
-0.00407384
-1.05349
1.05352
0.00398263
-0.00377446
-0.878665
0.878457
0.00350802
-0.00315667
-0.732831
0.732479
0.00280079
-0.00239157
-0.611093
0.610684
0.00201437
-0.00160836
-0.509556
0.50915
0.00125215
-0.000884006
-0.424414
0.424046
0.000575892
-0.000284892
-0.337633
0.337342
9.11576e-05
-0.102322
0.102231
-0.102537
0.102523
1.37765e-05
-0.000119064
0.000195915
-0.351851
0.351774
-0.000288209
0.000375401
-0.425112
0.425025
-0.000470217
0.000551669
-0.509891
0.50981
-0.000629625
0.000683078
-0.611942
0.611889
-0.000712494
0.00070197
-0.73368
0.73369
-0.000636486
0.000514927
-0.879769
0.87989
-0.000302787
2.78875e-05
-1.05469
1.05497
0.000366876
-0.000811708
-1.26435
1.2648
0.0013727
-0.00192398
-1.51622
1.51677
0.00242632
-0.00284091
-1.51581
1.51622
0.00308949
-0.00322535
-1.26351
1.26365
0.00324694
-0.00317123
-1.05349
1.05342
0.00302808
-0.0028096
-0.878243
0.878024
0.00257063
-0.00228117
-0.732164
0.731874
0.00200462
-0.00169886
-0.610335
0.610029
0.00142474
-0.00113534
-0.508813
0.508523
0.000884666
-0.000627999
-0.423744
0.423487
0.000413484
-0.000208622
-0.337102
0.336897
6.84228e-05
-0.102153
0.102085
-0.102522
0.102533
-1.02389e-05
2.48823e-05
-2.59598e-05
-0.35174
0.351741
2.74949e-05
-3.14525e-05
-0.424987
0.424991
4.03338e-05
-5.48111e-05
-0.50978
0.509794
8.13177e-05
-0.000119244
-0.611884
0.611922
0.000181056
-0.000261794
-0.733736
0.733817
0.000383815
-0.000532956
-0.880022
0.880171
0.000744142
-0.000984736
-1.05522
1.05546
0.00130168
-0.00163382
-1.26518
1.26551
0.00202962
-0.0023934
-1.51722
1.51758
0.00269679
-0.00291274
-1.51653
1.51675
0.00301083
-0.00301658
-1.26371
1.26371
0.00293875
-0.00279096
-1.0533
1.05316
0.00261119
-0.00238092
-0.877801
0.877571
0.00215107
-0.00188949
-0.731603
0.731341
0.00164876
-0.00139024
-0.609753
0.609494
0.00116265
-0.000925673
-0.508266
0.508029
0.000722541
-0.000515834
-0.423261
0.423054
0.000343015
-0.000175987
-0.336716
0.336549
5.87833e-05
-0.102023
0.101964
-0.102553
0.102583
-2.98933e-05
0.000141892
-0.000200411
-0.351773
0.351831
0.00026986
-0.000340257
-0.425031
0.425102
0.000426631
-0.000515312
-0.509848
0.509937
0.000624863
-0.000738331
-0.611999
0.612112
0.000880177
-0.00102835
-0.733932
0.73408
0.00121435
-0.001408
-0.880341
0.880534
0.00164828
-0.00189254
-1.0557
1.05594
0.00218393
-0.00246233
-1.26581
1.26608
0.00276377
-0.00300914
-1.51788
1.51812
0.00317832
-0.00325309
-1.51688
1.51696
0.00322854
-0.00313175
-1.26367
1.26357
0.00298774
-0.00278072
-1.05298
1.05277
0.00256314
-0.00230585
-0.877329
0.877072
0.00206364
-0.00179797
-0.731081
0.730815
0.00156074
-0.00131072
-0.609244
0.608994
0.00109413
-0.000871275
-0.507803
0.50758
0.000681785
-0.000489618
-0.422858
0.422666
0.000328404
-0.000170739
-0.336389
0.336231
5.78649e-05
-0.101907
0.101849
-0.102622
0.10267
-4.78756e-05
0.00024395
-0.000353043
-0.351915
0.352024
0.000483004
-0.000612691
-0.425202
0.425331
0.000767902
-0.000922692
-0.510058
0.510213
0.00110805
-0.00129294
-0.612261
0.612446
0.00151321
-0.00173141
-0.734262
0.73448
0.00198921
-0.00224104
-0.880755
0.881007
0.00253244
-0.0028079
-1.0562
1.05647
0.00311133
-0.00337661
-1.26635
1.26662
0.00363305
-0.00380704
-1.51833
1.5185
0.00388608
-0.00385965
-1.51698
1.51696
0.00375172
-0.00356077
-1.26343
1.26324
0.0033401
-0.00306555
-1.05253
1.05226
0.00279674
-0.00249406
-0.876794
0.876492
0.0022181
-0.00192274
-0.730538
0.730243
0.00166334
-0.00139348
-0.608737
0.608467
0.00116184
-0.000925088
-0.507353
0.507117
0.000724837
-0.000522257
-0.422471
0.422269
0.000352281
-0.000184757
-0.336071
0.335904
6.32134e-05
-0.101789
0.101726
-0.102727
0.102794
-6.70209e-05
0.000348926
-0.000508604
-0.352158
0.352318
0.000698955
-0.000888346
-0.42549
0.42568
0.00111412
-0.00133768
-0.510402
0.510625
0.00160251
-0.00186276
-0.612668
0.612928
0.00216822
-0.00246475
-0.734736
0.735033
0.00280702
-0.00313181
-0.881293
0.881618
0.00349518
-0.00382489
-1.05677
1.0571
0.00417009
-0.00445247
-1.26689
1.26717
0.00469873
-0.00483319
-1.51865
1.51879
0.00484679
-0.0047342
-1.51688
1.51677
0.00454246
-0.00426167
-1.263
1.26272
0.00396281
-0.00360763
-1.05195
1.05159
0.0032719
-0.00290292
-0.876158
0.875789
0.00257238
-0.00222324
-0.729923
0.729574
0.00191965
-0.00160647
-0.608179
0.607865
0.00133932
-0.00106734
-0.506865
0.506593
0.000837502
-0.000605309
-0.422054
0.421821
0.00041028
-0.000216862
-0.335725
0.335532
7.47796e-05
-0.101657
0.101582
-0.102871
0.10296
-8.91609e-05
0.00046873
-0.000685444
-0.352505
0.352722
0.000943891
-0.00120051
-0.425902
0.426158
0.00150551
-0.00180667
-0.510886
0.511187
0.00216214
-0.00251009
-0.61323
0.613578
0.00291532
-0.00330558
-0.735374
0.735764
0.00375101
-0.00416823
-0.881986
0.882404
0.00462689
-0.00503423
-1.05747
1.05788
0.00544852
-0.00577317
-1.26747
1.2678
0.00603585
-0.00615075
-1.51891
1.51903
0.00611235
-0.00591849
-1.51662
1.51642
0.00564015
-0.00525909
-1.26239
1.26201
0.00486727
-0.00441236
-1.05119
1.05073
0.00398913
-0.00352926
-0.875378
0.874918
0.00312128
-0.00269304
-0.729189
0.72876
0.00232274
-0.00194214
-0.607521
0.607141
0.00161824
-0.00128896
-0.506295
0.505965
0.00101134
-0.000731464
-0.421568
0.421288
0.000496654
-0.00026329
-0.33532
0.335087
9.1014e-05
-0.101501
0.10141
-0.103063
0.103179
-0.00011684
0.000615197
-0.000900008
-0.352971
0.353256
0.0012396
-0.00157682
-0.426453
0.42679
0.00197732
-0.00237217
-0.511533
0.511928
0.00283726
-0.00329119
-0.613976
0.61443
0.00381852
-0.00432398
-0.736209
0.736714
0.00489809
-0.00543201
-0.882876
0.88341
0.00601399
-0.00652484
-1.05833
1.05884
0.0070359
-0.00742666
-1.26815
1.26854
0.0077273
-0.00783636
-1.51914
1.51925
0.00775015
-0.00746993
-1.51619
1.51591
0.00709287
-0.0065912
-1.26157
1.26107
0.00608462
-0.00550302
-1.05022
1.04964
0.00496673
-0.00438774
-0.874403
0.873824
0.00387645
-0.00334178
-0.728283
0.727748
0.00288084
-0.00240773
-0.606717
0.606244
0.00200587
-0.00159784
-0.5056
0.505192
0.00125434
-0.000908014
-0.420977
0.420631
0.00061712
-0.000327625
-0.334827
0.334537
0.000113504
-0.101308
0.101195
-0.103313
0.103464
-0.000151678
0.000798434
-0.00116833
-0.353581
0.353951
0.00160923
-0.00204662
-0.427175
0.427612
0.00256573
-0.00307718
-0.512377
0.512889
0.00367906
-0.00426579
-0.614947
0.615533
0.00494612
-0.00559692
-0.737288
0.737939
0.0063338
-0.00701636
-0.884013
0.884696
0.00775655
-0.00840156
-1.05942
1.06006
0.00904052
-0.00952141
-1.26897
1.26945
0.00987978
-0.00999149
-1.51936
1.51947
0.00985456
-0.00947335
-1.51558
1.5152
0.0089765
-0.00832589
-1.2605
1.25985
0.00767455
-0.00693206
-1.04898
1.04824
0.00625018
-0.00551691
-0.873173
0.872439
0.00487073
-0.00419699
-0.727148
0.726475
0.00361664
-0.00302227
-0.605714
0.60512
0.00251754
-0.00200596
-0.504735
0.504224
0.0015752
-0.00114076
-0.420243
0.419809
0.000775384
-0.00041142
-0.334214
0.33385
0.000142264
-0.101067
0.100925
-0.103637
0.103833
-0.000196301
0.00103181
-0.00150964
-0.354371
0.354849
0.00207922
-0.00264414
-0.428109
0.428674
0.00331428
-0.00397403
-0.51347
0.51413
0.00474984
-0.00550532
-0.616199
0.616955
0.00637997
-0.00721526
-0.738676
0.739512
0.00815877
-0.00903059
-0.885467
0.886339
0.00997235
-0.0107893
-1.06079
1.0616
0.0115927
-0.0121906
-1.26999
1.27059
0.0126255
-0.0127439
-1.51958
1.5197
0.0125462
-0.0120394
-1.51476
1.51425
0.0113928
-0.0105537
-1.25911
1.25827
0.00971924
-0.00877148
-1.0474
1.04645
0.00790408
-0.0069731
-0.871613
0.870682
0.00615449
-0.00530149
-0.725717
0.724864
0.00456773
-0.00381637
-0.604453
0.603701
0.00317893
-0.00253263
-0.503649
0.503003
0.00198847
-0.00143982
-0.419321
0.418772
0.0009788
-0.000519702
-0.333441
0.332982
0.000179914
-0.100765
0.100585
-0.104057
0.104311
-0.000254548
0.00133372
-0.00195028
-0.355392
0.356008
0.00268509
-0.00341368
-0.429316
0.430044
0.00427773
-0.00512796
-0.514879
0.515729
0.0061268
-0.00709836
-0.617811
0.618783
0.00822189
-0.00929287
-0.740458
0.741529
0.0105006
-0.0116133
-0.887324
0.888437
0.0128116
-0.0138462
-1.06252
1.06356
0.0148573
-0.0156021
-1.27126
1.272
0.0161317
-0.0162567
-1.51982
1.51995
0.0159797
-0.0153129
-1.51367
1.513
0.0144748
-0.0133959
-1.25732
1.25624
0.0123277
-0.0111183
-1.04538
1.04417
0.0100139
-0.0088303
-0.869633
0.868449
0.00779099
-0.00670892
-0.723903
0.722821
0.00577896
-0.00482747
-0.602855
0.601904
0.00402066
-0.00320274
-0.502276
0.501458
0.00251433
-0.0018205
-0.418156
0.417462
0.00123763
-0.000656947
-0.332466
0.331885
0.000227212
-0.100383
0.100156
-0.104601
0.104932
-0.00033122
0.00172805
-0.00252465
-0.356709
0.357505
0.00347375
-0.00441432
-0.430872
0.431813
0.00552908
-0.00662518
-0.516694
0.51779
0.00791195
-0.0091623
-0.619885
0.621135
0.010606
-0.0119799
-0.742741
0.744115
0.0135251
-0.0149447
-0.889694
0.891113
0.0164673
-0.0177754
-1.06472
1.06603
0.0190448
-0.0199694
-1.27283
1.27376
0.0206106
-0.0207354
-1.52007
1.5202
0.0203505
-0.0194738
-1.51224
1.51136
0.018389
-0.017003
-1.25502
1.25363
0.0156369
-0.0140953
-1.04281
1.04126
0.0126901
-0.0111867
-0.867115
0.865612
0.00986756
-0.00849552
-0.721603
0.720231
0.00731673
-0.00611106
-0.600833
0.599627
0.00508881
-0.00405288
-0.500537
0.499502
0.00318136
-0.00230321
-0.416681
0.415803
0.00156548
-0.000830727
-0.331232
0.330497
0.000287214
-0.0999007
0.0996135
-0.105311
0.105744
-0.000433172
0.00224694
-0.0032793
-0.358412
0.359444
0.00450883
-0.0057266
-0.432882
0.4341
0.00716884
-0.00858558
-0.519036
0.520452
0.0102464
-0.0118576
-0.622554
0.624165
0.0137144
-0.0154769
-0.745671
0.747434
0.0174533
-0.0192621
-0.892716
0.894525
0.0211928
-0.0228411
-1.0675
1.06915
0.0244264
-0.0255649
-1.27478
1.27592
0.0263296
-0.0264368
-1.52032
1.52042
0.0259006
-0.0247476
-1.51036
1.5092
0.0233442
-0.0215652
-1.25206
1.25028
0.0198201
-0.0178564
-1.03952
1.03756
0.0160703
-0.0141619
-0.863918
0.862009
0.012489
-0.0107503
-0.718686
0.716947
0.00925697
-0.00772999
-0.59827
0.596743
0.00643572
-0.00512458
-0.498336
0.497025
0.00402161
-0.00291024
-0.414815
0.413703
0.00197671
-0.0010476
-0.329671
0.328742
0.000361393
-0.0992913
0.0989299
-0.106241
0.106812
-0.000571301
0.00294034
-0.00428432
-0.360621
0.361965
0.005884
-0.00746697
-0.435487
0.43707
0.0093397
-0.0111769
-0.522065
0.523902
0.0133271
-0.0154088
-0.625996
0.628078
0.017801
-0.0200642
-0.749431
0.751694
0.022591
-0.0248912
-0.896565
0.898866
0.0273301
-0.0293945
-1.07099
1.07306
0.0313567
-0.0327396
-1.27718
1.27856
0.0336281
-0.0336837
-1.52051
1.52057
0.0329321
-0.0314121
-1.50788
1.50636
0.0295968
-0.0273169
-1.24827
1.24599
0.0250919
-0.0225958
-1.03534
1.03285
0.0203297
-0.0179109
-0.85986
0.857442
0.0157927
-0.0135921
-0.714991
0.71279
0.011703
-0.00977205
-0.595026
0.593095
0.00813559
-0.00647772
-0.49555
0.493893
0.00508302
-0.00367762
-0.412453
0.411048
0.00249733
-0.00132285
-0.327697
0.326522
0.000455977
-0.0985238
0.0980679
-0.107471
0.108234
-0.000762762
0.00388239
-0.00564477
-0.363503
0.365265
0.00774067
-0.00981175
-0.43888
0.440951
0.0122581
-0.0146533
-0.525998
0.528393
0.0174492
-0.0201465
-0.630446
0.633144
0.0232339
-0.0261399
-0.754259
0.757165
0.0293647
-0.0322788
-0.901456
0.90437
0.0353394
-0.0378997
-1.07536
1.07792
0.0402934
-0.0419369
-1.28007
1.28172
0.0429251
-0.0428669
-1.52058
1.52052
0.0418065
-0.0397994
-1.50461
1.50261
0.0374543
-0.0345391
-1.24341
1.24049
0.0317108
-0.0285478
-1.03004
1.02687
0.0256819
-0.0226262
-0.854722
0.851666
0.0199509
-0.0171715
-0.710316
0.707537
0.0147855
-0.0123458
-0.590924
0.588484
0.0102781
-0.00818322
-0.492029
0.489934
0.00642062
-0.00464446
-0.409468
0.407692
0.00315259
-0.00166852
-0.325202
0.323718
0.000574215
-0.0975565
0.0969822
-0.109121
0.110158
-0.0010368
0.00519817
-0.00753376
-0.36729
0.369626
0.0103069
-0.0130412
-0.443327
0.446061
0.0162622
-0.0194056
-0.531135
0.534278
0.0230601
-0.026569
-0.636219
0.639728
0.0305604
-0.0342893
-0.760457
0.764186
0.0383893
-0.0420531
-0.907642
0.911306
0.04585
-0.0489732
-1.08076
1.08388
0.0518259
-0.0537112
-1.28349
1.28537
0.0547291
-0.0544498
-1.52037
1.52009
0.0529456
-0.0502956
-1.5003
1.49765
0.0472754
-0.043567
-1.2372
1.23349
0.0399905
-0.0360044
-1.02332
1.01933
0.0323967
-0.0285516
-0.848236
0.844391
0.0251841
-0.021684
-0.704416
0.700916
0.0186769
-0.0156002
-0.585744
0.582667
0.0129902
-0.010344
-0.487579
0.484933
0.00811622
-0.00587005
-0.405695
0.403449
0.00398307
-0.00210638
-0.32205
0.320173
0.000723959
-0.0963379
0.0956139
-0.111381
0.11283
-0.00144954
0.00711714
-0.0102666
-0.372325
0.375475
0.013991
-0.0176476
-0.449217
0.452874
0.0219354
-0.0260982
-0.537894
0.542056
0.0309063
-0.0354857
-0.643737
0.648316
0.0406441
-0.0454072
-0.768405
0.773168
0.0505718
-0.0551126
-0.915395
0.919936
0.0597261
-0.0634301
-1.0873
1.091
0.0667002
-0.0687375
-1.28735
1.28939
0.0696366
-0.0689613
-1.51964
1.51896
0.0668248
-0.0633345
-1.49461
1.49112
0.0594693
-0.0547879
-1.22932
1.22464
0.0503057
-0.0453251
-1.01487
1.00989
0.040821
-0.036016
-0.840088
0.835283
0.031801
-0.0274102
-0.696993
0.692602
0.02363
-0.019754
-0.579213
0.575337
0.0164606
-0.0131163
-0.481958
0.478614
0.0102971
-0.00745115
-0.400923
0.398077
0.0050574
-0.00267489
-0.318062
0.315679
0.000919373
-0.0947986
0.0938792
-0.114579
0.116722
-0.00214292
0.0101836
-0.0145543
-0.379138
0.383509
0.0196617
-0.0246312
-0.457141
0.46211
0.0304075
-0.0359643
-0.546885
0.552442
0.042313
-0.0482813
-0.653561
0.659529
0.0548985
-0.0608972
-0.778531
0.78453
0.0672643
-0.0727295
-0.924941
0.930406
0.0781261
-0.08231
-1.09497
1.09915
0.0858182
-0.0877961
-1.29143
1.29341
0.0883033
-0.0869617
-1.51799
1.51665
0.0839359
-0.0793653
-1.48712
1.48255
0.0744667
-0.0686308
-1.2194
1.21357
0.0630892
-0.0569529
-1.00435
0.998215
0.0514043
-0.0454735
-0.829932
0.824002
0.0402527
-0.0347913
-0.687695
0.682233
0.030067
-0.0252006
-0.570986
0.566119
0.0210469
-0.0168113
-0.474848
0.470612
0.0132263
-0.00959337
-0.39487
0.391237
0.00652471
-0.00345827
-0.312995
0.309928
0.00119099
-0.0928369
0.0916459
-0.119337
0.122984
-0.00364611
0.0160831
-0.0223827
-0.388636
0.394935
0.0295061
-0.0363013
-0.468079
0.474874
0.0440804
-0.0514595
-0.559004
0.566383
0.0597412
-0.0673649
-0.666364
0.673987
0.0756164
-0.0828958
-0.791187
0.798467
0.0903866
-0.0966033
-0.936282
0.942499
0.102497
-0.106835
-1.10346
1.1078
0.110173
-0.111694
-1.29522
1.29674
0.111371
-0.108977
-1.51484
1.51245
0.10473
-0.0988047
-1.47734
1.47141
0.0926821
-0.0855311
-1.20709
1.19994
0.0788153
-0.071415
-0.991453
0.984053
0.0647319
-0.0575736
-0.817454
0.810296
0.0512457
-0.0445842
-0.676157
0.669496
0.03878
-0.0327526
-0.560646
0.554618
0.0275641
-0.0222219
-0.465805
0.460462
0.0176498
-0.0129575
-0.387117
0.382425
0.008927
-0.00479341
-0.306492
0.302359
0.00166865
-0.0902867
0.088618
-0.127014
0.135063
-0.00804876
0.0304733
-0.0393492
-0.402733
0.411609
0.0487938
-0.0576793
-0.483661
0.492547
0.0677187
-0.0770867
-0.575302
0.58467
0.0873485
-0.0965065
-0.682571
0.691729
0.106088
-0.114236
-0.806227
0.814375
0.122282
-0.128647
-0.948841
0.955206
0.13435
-0.138183
-1.11195
1.11578
0.140662
-0.141105
-1.29779
1.29823
0.13935
-0.135403
-1.50932
1.50538
0.129543
-0.121978
-1.46469
1.45712
0.114452
-0.105887
-1.19208
1.18351
0.0979561
-0.0892973
-0.976003
0.967344
0.0815146
-0.0731977
-0.802495
0.794178
0.0658415
-0.0580722
-0.662142
0.654372
0.051267
-0.0441615
-0.547794
0.540689
0.0379918
-0.0315511
-0.454244
0.447803
0.0259263
-0.019967
-0.376935
0.370976
0.0144643
-0.00800397
-0.297926
0.291466
0.00276508
-0.0868381
0.0840731
-0.143851
0.146035
-0.00218388
0.0181795
-0.0268162
-0.424935
0.433571
0.0366347
-0.0464058
-0.505113
0.514884
0.05766
-0.0687142
-0.595579
0.606634
0.0805643
-0.091085
-0.701155
0.711675
0.102699
-0.112955
-0.822207
0.832463
0.123557
-0.132618
-0.960985
0.970046
0.141571
-0.148706
-1.11882
1.12595
0.15498
-0.159039
-1.29771
1.30177
0.161073
-0.160262
-1.50033
1.49952
0.156498
-0.150189
-1.44855
1.44224
0.142867
-0.133595
-1.17417
1.16489
0.124544
-0.113698
-0.958054
0.947208
0.103673
-0.092537
-0.785258
0.774122
0.0824487
-0.0715808
-0.645885
0.635018
0.0616939
-0.0514898
-0.532564
0.52236
0.0428857
-0.0337155
-0.439979
0.430809
0.025913
-0.017883
-0.363579
0.355549
0.0106511
-0.00398007
-0.28518
0.278509
0.000227048
-0.0811595
0.0809325
-0.154611
0.149463
0.00514772
-0.00128019
-0.00511719
-0.446657
0.453054
0.0138859
-0.0223994
-0.526656
0.535169
0.0326672
-0.0421282
-0.617456
0.626917
0.0526942
-0.0622925
-0.722231
0.731829
0.0725369
-0.0817932
-0.842376
0.851632
0.0914073
-0.0993767
-0.978997
0.986966
0.107484
-0.113632
-1.13314
1.13929
0.119029
-0.122236
-1.30581
1.30902
0.123298
-0.121795
-1.49824
1.49674
0.117531
-0.11098
-1.43551
1.42896
0.103468
-0.0943338
-1.15553
1.14639
0.0856534
-0.0758546
-0.936543
0.926745
0.0667886
-0.0568017
-0.763026
0.753039
0.0479397
-0.0388465
-0.623654
0.614561
0.0311521
-0.0233073
-0.511104
0.50326
0.0168594
-0.010774
-0.419341
0.413256
0.00612178
-0.00177396
-0.344273
0.339925
-0.00123447
0.00295662
-0.268727
0.267005
-0.00244464
-0.0768182
0.0792629
-0.153959
0.150597
0.00336225
-0.00215407
-0.00192885
-0.46306
0.467142
0.0078412
-0.0143495
-0.544554
0.551062
0.0222086
-0.0298485
-0.636155
0.643795
0.0385158
-0.0465432
-0.740895
0.748923
0.0554149
-0.063363
-0.860253
0.868201
0.0714856
-0.0785926
-0.994824
1.00193
0.0856835
-0.0911869
-1.14517
1.15068
0.0956615
-0.0981422
-1.31182
1.3143
0.0988487
-0.0970525
-1.49488
1.49309
0.0927572
-0.0864854
-1.42222
1.41595
0.079578
-0.0715456
-1.13765
1.12961
0.0637679
-0.0553761
-0.917259
0.908867
0.047791
-0.0396212
-0.744039
0.735869
0.0326998
-0.0256181
-0.605976
0.598894
0.0198018
-0.0138291
-0.495092
0.489119
0.0092296
-0.00506346
-0.40541
0.401244
0.00204485
0.000428773
-0.332312
0.329839
-0.00207229
0.00287899
-0.259929
0.259123
-0.00203207
-0.0757634
0.0777955
-0.1553
0.15245
0.00284942
-0.00242293
-0.000666921
-0.475047
0.478137
0.00533656
-0.0108349
-0.558154
0.563652
0.0176023
-0.0239553
-0.651058
0.657411
0.031343
-0.0382392
-0.756671
0.763568
0.045849
-0.0527269
-0.875735
0.882613
0.0601703
-0.0663582
-1.00871
1.0149
0.0727599
-0.0773571
-1.15594
1.16054
0.0813951
-0.0835968
-1.31676
1.31897
0.0840075
-0.0819506
-1.49113
1.48908
0.0779649
-0.072255
-1.4095
1.40379
0.0660231
-0.0585891
-1.12178
1.11434
0.0517858
-0.044567
-0.900677
0.893458
0.0380012
-0.0313202
-0.728266
0.721585
0.0253628
-0.0194853
-0.5919
0.586022
0.014612
-0.0098819
-0.482951
0.478221
0.00623657
-0.00283787
-0.395189
0.39179
0.000368167
0.00131192
-0.323778
0.322098
-0.00260699
0.00300471
-0.253419
0.253021
-0.00187947
-0.0746002
0.0764797
-0.157197
0.154905
0.0022921
-0.00199067
-0.000507107
-0.485056
0.487553
0.00502321
-0.00980892
-0.569861
0.574647
0.0155605
-0.0214284
-0.663795
0.669662
0.0278627
-0.0341276
-0.770181
0.776446
0.0409679
-0.047196
-0.889233
0.895461
0.0538903
-0.0596692
-1.02108
1.02686
0.0654189
-0.0699036
-1.16515
1.16963
0.0736415
-0.0756544
-1.32098
1.323
0.0759577
-0.0739329
-1.48701
1.48498
0.0701197
-0.0645498
-1.39764
1.39207
0.0587288
-0.0519996
-1.10709
1.10036
0.0458049
-0.0391539
-0.886235
0.879584
0.0333333
-0.0273128
-0.714922
0.708902
0.0221583
-0.0169587
-0.580188
0.574988
0.0127165
-0.00859359
-0.473004
0.468881
0.00524257
-0.00222127
-0.386891
0.383869
0.000255055
0.00137896
-0.317051
0.315417
-0.00257272
0.002712
-0.248115
0.247976
-0.00174907
-0.0736464
0.0753955
-0.159372
0.157348
0.00202472
-0.00149905
-0.00120703
-0.493847
0.496553
0.00511197
-0.00968978
-0.579837
0.584415
0.0154044
-0.0207334
-0.675199
0.680528
0.0266766
-0.0324961
-0.782347
0.788167
0.0389631
-0.0448846
-0.901545
0.907467
0.051375
-0.0568122
-1.03253
1.03797
0.0623699
-0.0667306
-1.17398
1.17834
0.0703253
-0.0722612
-1.32487
1.3268
0.0724996
-0.0707842
-1.48289
1.48118
0.0669611
-0.0616148
-1.3861
1.38075
0.05593
-0.0493947
-1.09347
1.08693
0.0436356
-0.0371853
-0.872876
0.866425
0.0316284
-0.0260525
-0.702859
0.697283
0.0212527
-0.0164169
-0.569851
0.565015
0.0124328
-0.00841132
-0.464313
0.460291
0.00543984
-0.00260638
-0.379605
0.376772
0.000467163
0.00109241
-0.31094
0.30938
-0.00212463
0.00247224
-0.243563
0.243216
-0.00157673
-0.0727955
0.0743723
-0.161683
0.160104
0.00157862
-0.000646199
-0.0020726
-0.502082
0.5048
0.00617893
-0.0103815
-0.589514
0.593717
0.0159299
-0.0211022
-0.685877
0.691049
0.0271399
-0.0326282
-0.793973
0.799461
0.0388187
-0.0445191
-0.913569
0.919269
0.0510868
-0.0564513
-1.04362
1.04898
0.06187
-0.0663356
-1.18266
1.18712
0.0703362
-0.0723095
-1.32881
1.33078
0.0726927
-0.0709032
-1.47902
1.47723
0.0672903
-0.0616259
-1.37503
1.36936
0.0559992
-0.0495507
-1.0801
1.07365
0.0436638
-0.0374212
-0.859892
0.853649
0.031904
-0.0262611
-0.691396
0.685753
0.0217624
-0.0169713
-0.560011
0.55522
0.0129801
-0.00918504
-0.455991
0.452196
0.00612101
-0.00315144
-0.372924
0.369955
0.00107583
0.000544261
-0.305448
0.303828
-0.00160473
0.00213687
-0.239331
0.238799
-0.0014763
-0.0720048
0.0734811
-0.164303
0.163027
0.00127628
0.0001528
-0.00291694
-0.509937
0.512701
0.00727025
-0.0116114
-0.598839
0.60318
0.0170591
-0.0220989
-0.696285
0.701325
0.0278323
-0.0335022
-0.805222
0.810892
0.0397015
-0.0458652
-0.92502
0.931184
0.0521331
-0.0576795
-1.05462
1.06017
0.063572
-0.0681219
-1.19161
1.19616
0.0719818
-0.0745316
-1.33272
1.33526
0.0751547
-0.0734853
-1.47532
1.47365
0.0696877
-0.0640195
-1.36351
1.35785
0.0581354
-0.0513602
-1.06657
1.05979
0.0452836
-0.038806
-0.847033
0.840555
0.0331717
-0.0275676
-0.679967
0.674363
0.0227363
-0.0179788
-0.550207
0.54545
0.0140702
-0.0101112
-0.448026
0.444067
0.00692229
-0.00410159
-0.3662
0.363379
0.0018814
-2.28361e-05
-0.300076
0.298217
-0.00120582
0.00185565
-0.235261
0.234611
-0.00141839
-0.0714046
0.0728229
-0.167312
0.16619
0.00112248
0.001226
-0.00423759
-0.517731
0.520743
0.00855111
-0.0130287
-0.608134
0.612611
0.0183586
-0.0235478
-0.706722
0.711911
0.0294333
-0.035033
-0.81667
0.82227
0.0416979
-0.047466
-0.937052
0.94282
0.0541008
-0.0598288
-1.06604
1.07177
0.0660091
-0.0710901
-1.20085
1.20593
0.0755604
-0.0781472
-1.33763
1.34022
0.0791799
-0.0777123
-1.47168
1.47022
0.0740469
-0.0679413
-1.35158
1.34548
0.0616614
-0.0543538
-1.05259
1.04529
0.047838
-0.040877
-0.833502
0.826541
0.0350022
-0.0290047
-0.668304
0.662307
0.0240029
-0.0190567
-0.540394
0.535448
0.0149538
-0.011102
-0.439842
0.43599
0.0077963
-0.0048496
-0.359529
0.356583
0.00242977
-0.0004664
-0.294667
0.292703
-0.000816831
0.00171159
-0.231139
0.230244
-0.00131955
-0.0709514
0.0722709
-0.170298
0.169576
0.000722039
0.00205272
-0.00559273
-0.525699
0.529239
0.00980982
-0.0144149
-0.617137
0.621742
0.0196165
-0.024917
-0.717207
0.722508
0.0309279
-0.0369296
-0.82803
0.834031
0.0433665
-0.0496158
-0.949008
0.955258
0.0565802
-0.0624916
-1.07812
1.08403
0.0691771
-0.0746102
-1.21101
1.21644
0.0795452
-0.0829309
-1.34325
1.34663
0.0845807
-0.0832819
-1.46857
1.46727
0.0793934
-0.0730769
-1.33892
1.3326
0.0663289
-0.058198
-1.03718
1.02905
0.0509014
-0.0434061
-0.818971
0.811476
0.0366994
-0.0304172
-0.655777
0.649495
0.0251326
-0.019887
-0.530355
0.52511
0.0157815
-0.0117386
-0.431549
0.427506
0.00845534
-0.00527727
-0.35299
0.349812
0.00290853
-0.000830271
-0.289304
0.287226
-0.000693315
0.00166699
-0.227089
0.226115
-0.00136203
-0.0706115
0.0719735
-0.17356
0.173042
0.000518229
0.00276004
-0.00621642
-0.533845
0.537301
0.0110676
-0.0154768
-0.626567
0.630976
0.0209739
-0.0263471
-0.727703
0.733076
0.0324731
-0.0383698
-0.839989
0.845885
0.0452181
-0.0514702
-0.961741
0.967993
0.058771
-0.0654462
-1.09058
1.09726
0.072246
-0.0784216
-1.22213
1.22831
0.084232
-0.0881095
-1.35005
1.35392
0.0904459
-0.0898989
-1.46597
1.46542
0.086023
-0.0794135
-1.32548
1.31887
0.0717231
-0.0626142
-1.02009
1.01098
0.054402
-0.0457743
-0.802933
0.794305
0.0384263
-0.0314028
-0.64236
0.635337
0.0256961
-0.0201174
-0.51958
0.514001
0.0157599
-0.0117147
-0.423145
0.419099
0.00830713
-0.00520306
-0.346276
0.343172
0.00280688
-0.000698656
-0.283952
0.281844
-0.000753463
0.00170927
-0.223228
0.222272
-0.00140281
-0.0706824
0.0720852
-0.176996
0.176762
0.00023411
0.00370366
-0.00725963
-0.542048
0.545604
0.0119101
-0.0165681
-0.635851
0.640509
0.0220995
-0.0274807
-0.738355
0.743736
0.0339015
-0.0398647
-0.852
0.857963
0.0468487
-0.0534965
-0.97492
0.981568
0.0610261
-0.0680309
-1.10404
1.11105
0.0754917
-0.0821488
-1.23465
1.24131
0.0887044
-0.0938223
-1.35826
1.36337
0.0970832
-0.0970393
-1.46471
1.46466
0.0936062
-0.0864621
-1.31143
1.30429
0.0780729
-0.0677599
-1.00074
0.990431
0.0579736
-0.0478742
-0.784519
0.774419
0.0394009
-0.0312703