/*--------------------------------*- C++ -*----------------------------------*\
  =========                 |
  \\      /  F ield         | OpenFOAM: The Open Source CFD Toolbox
   \\    /   O peration     | Website:  https://openfoam.org
    \\  /    A nd           | Version:  9
     \\/     M anipulation  |
\*---------------------------------------------------------------------------*/
FoamFile
{
    format      ascii;
    class       volVectorField;
    location    "2";
    object      U;
}
// * * * * * * * * * * * * * * * * * * * * * * * * * * * * * * * * * * * * * //

dimensions      [0 1 -1 0 0 0 0];

internalField   nonuniform List<vector> 
8800
(
(0.972721 -0.0883204 0)
(1.01148 -0.0593983 0)
(1.00163 -0.0322377 0)
(0.998407 -0.0176386 0)
(0.997197 -0.00997877 0)
(0.996678 -0.00600724 0)
(0.996447 -0.00378997 0)
(0.996371 -0.00236833 0)
(0.996386 -0.00125734 0)
(0.996452 -0.000227113 0)
(0.996396 0.00081926 0)
(0.996353 0.00185488 0)
(0.996386 0.0030625 0)
(0.996536 0.00479665 0)
(0.996882 0.00771714 0)
(0.997663 0.0132198 0)
(0.999575 0.023852 0)
(1.00507 0.0431461 0)
(1.01883 0.0765054 0)
(0.765861 0.0484438 0)
(0.434864 -0.0100088 0)
(1.05105 -0.0389013 0)
(1.06969 -0.0390173 0)
(1.04405 -0.0366753 0)
(1.02631 -0.0310701 0)
(1.01564 -0.0238498 0)
(1.00975 -0.016977 0)
(1.00665 -0.0113122 0)
(1.00508 -0.00668563 0)
(1.00442 -0.00264275 0)
(1.0043 0.00123128 0)
(1.00465 0.00513722 0)
(1.00572 0.00934336 0)
(1.00794 0.0143551 0)
(1.01224 0.0205819 0)
(1.02027 0.027745 0)
(1.03425 0.0343635 0)
(1.05616 0.0384563 0)
(1.0764 0.0385093 0)
(0.899003 0.0340427 0)
(0.356826 0.000232065 0)
(1.04825 -0.0136031 0)
(1.04689 -0.0205353 0)
(1.03587 -0.0230214 0)
(1.02604 -0.0220751 0)
(1.01838 -0.0191766 0)
(1.01298 -0.0150386 0)
(1.00946 -0.0104226 0)
(1.00742 -0.00572042 0)
(1.00652 -0.000652989 0)
(1.00676 0.00441019 0)
(1.00814 0.00916761 0)
(1.01082 0.0137031 0)
(1.01517 0.0180052 0)
(1.02161 0.0214919 0)
(1.03036 0.0233474 0)
(1.04109 0.0227534 0)
(1.05125 0.0178802 0)
(1.00508 0.00885817 0)
(0.356532 -0.000219468 0)
(0.358216 4.86531e-05 0)
(1.02775 -0.00306618 0)
(1.03353 -0.00685709 0)
(1.03019 -0.0100377 0)
(1.02544 -0.0119758 0)
(1.02021 -0.0123602 0)
(1.01552 -0.0110165 0)
(1.0119 -0.00832605 0)
(1.00946 -0.00474618 0)
(1.00843 -0.000382513 0)
(1.00868 0.00407069 0)
(1.01036 0.00801114 0)
(1.01311 0.0110254 0)
(1.01724 0.012885 0)
(1.02228 0.0131925 0)
(1.02728 0.0117211 0)
(1.03125 0.00898991 0)
(1.03313 0.00526255 0)
(0.985749 0.00146274 0)
(0.357765 -3.74995e-05 0)
(0.356539 -5.69421e-05 0)
(1.02038 -0.00167778 0)
(1.02681 -0.00337689 0)
(1.02563 -0.00503096 0)
(1.02365 -0.00631909 0)
(1.02122 -0.00685681 0)
(1.01856 -0.00648149 0)
(1.01602 -0.00511352 0)
(1.01398 -0.00280385 0)
(1.01305 0.000184603 0)
(1.01318 0.00324543 0)
(1.01459 0.00567147 0)
(1.01651 0.00728584 0)
(1.01904 0.0078859 0)
(1.02155 0.00751349 0)
(1.0237 0.00632933 0)
(1.02524 0.00463946 0)
(1.02547 0.00277107 0)
(0.978955 0.00105014 0)
(0.355782 6.30854e-05 0)
(0.355517 -2.72891e-05 0)
(1.01694 -0.000857198 0)
(1.02363 -0.00165342 0)
(1.02306 -0.00248697 0)
(1.02204 -0.00321949 0)
(1.02065 -0.00364656 0)
(1.01895 -0.00358347 0)
(1.01716 -0.00286524 0)
(1.01558 -0.00142355 0)
(1.01463 0.000596997 0)
(1.01466 0.00268403 0)
(1.01564 0.00416502 0)
(1.01699 0.00490874 0)
(1.01856 0.0049678 0)
(1.01998 0.0044492 0)
(1.02109 0.00356351 0)
(1.02183 0.00252302 0)
(1.02156 0.00148736 0)
(0.975284 0.00057287 0)
(0.354646 3.49561e-05 0)
(0.354959 -1.07494e-05 0)
(1.01526 -0.000398194 0)
(1.02208 -0.000786562 0)
(1.0218 -0.00119379 0)
(1.02124 -0.00156171 0)
(1.02042 -0.00178737 0)
(1.01935 -0.00174496 0)
(1.01811 -0.00129768 0)
(1.01692 -0.000364781 0)
(1.01606 0.000999578 0)
(1.01592 0.00236565 0)
(1.01646 0.0032336 0)
(1.01727 0.00353074 0)
(1.01815 0.00337477 0)
(1.01891 0.00289838 0)
(1.01947 0.00225775 0)
(1.01982 0.00157335 0)
(1.01934 0.000927838 0)
(0.973184 0.000366695 0)
(0.353877 2.55792e-05 0)
(0.354751 -1.78607e-06 0)
(1.0145 -0.000136866 0)
(1.02137 -0.000288604 0)
(1.02121 -0.000445752 0)
(1.02087 -0.000573591 0)
(1.02034 -0.000620296 0)
(1.01961 -0.00050953 0)
(1.01872 -0.000155021 0)
(1.01777 0.000504342 0)
(1.01698 0.00142795 0)
(1.01665 0.00229002 0)
(1.01682 0.00274903 0)
(1.01721 0.00279076 0)
(1.01765 0.00253771 0)
(1.01802 0.00210836 0)
(1.01829 0.00160714 0)
(1.01846 0.00111193 0)
(1.01788 0.000655282 0)
(0.971794 0.000265915 0)
(0.353337 2.01674e-05 0)
(0.354746 5.62103e-06 0)
(1.01431 2.28117e-05 0)
(1.02118 2.47014e-05 0)
(1.02109 4.02502e-05 0)
(1.02085 8.45154e-05 0)
(1.02047 0.000188378 0)
(1.01992 0.000392225 0)
(1.01921 0.000743418 0)
(1.01839 0.00126723 0)
(1.01758 0.00191719 0)
(1.01707 0.00243773 0)
(1.01692 0.00263366 0)
(1.01699 0.00248974 0)
(1.01713 0.00216798 0)
(1.01726 0.00175396 0)
(1.01737 0.00131922 0)
(1.01743 0.000906217 0)
(1.01679 0.000536943 0)
(0.970742 0.000221269 0)
(0.352904 1.82274e-05 0)
(0.35489 1.10881e-05 0)
(1.01448 0.000147937 0)
(1.02137 0.00026408 0)
(1.02131 0.00040768 0)
(1.02111 0.000589401 0)
(1.02079 0.000824724 0)
(1.02032 0.00113302 0)
(1.01967 0.00153005 0)
(1.01887 0.00200998 0)
(1.01798 0.00250266 0)
(1.01726 0.00279193 0)
(1.01685 0.00275066 0)
(1.01664 0.00250283 0)
(1.01656 0.00211239 0)
(1.01653 0.00167474 0)
(1.01652 0.00124522 0)
(1.01652 0.000851428 0)
(1.01584 0.000508423 0)
(0.969819 0.000212959 0)
(0.352506 1.85571e-05 0)
(0.355157 1.70939e-05 0)
(1.01497 0.000258818 0)
(1.02185 0.000474816 0)
(1.0218 0.000731779 0)
(1.0216 0.00103974 0)
(1.0213 0.00140455 0)
(1.02083 0.00183061 0)
(1.02017 0.00231142 0)
(1.0193 0.0028096 0)
(1.01826 0.00322587 0)
(1.01729 0.00336046 0)
(1.01661 0.00317163 0)
(1.01618 0.00277807 0)
(1.01592 0.00229428 0)
(1.01576 0.00179513 0)
(1.01567 0.00132527 0)
(1.01561 0.000904422 0)
(1.0149 0.000540884 0)
(0.968893 0.000229351 0)
(0.352091 2.0653e-05 0)
(0.355553 2.32628e-05 0)
(1.01574 0.000371166 0)
(1.02262 0.000687597 0)
(1.02255 0.00106274 0)
(1.02235 0.00150099 0)
(1.02201 0.00200671 0)
(1.0215 0.00257212 0)
(1.02075 0.00317063 0)
(1.01974 0.00373619 0)
(1.01846 0.00413379 0)
(1.01719 0.00415662 0)
(1.01623 0.00381834 0)
(1.01557 0.0032822 0)
(1.01514 0.0026766 0)
(1.01487 0.00207899 0)
(1.0147 0.00152823 0)
(1.0146 0.00104362 0)
(1.01387 0.00062518 0)
(0.967861 0.000268289 0)
(0.351616 2.48119e-05 0)
(0.35609 3.08856e-05 0)
(1.01682 0.000499892 0)
(1.02369 0.000929495 0)
(1.0236 0.00143455 0)
(1.02336 0.00202415 0)
(1.02296 0.00269457 0)
(1.02235 0.00343043 0)
(1.02146 0.00418486 0)
(1.02023 0.0048629 0)
(1.01863 0.00528455 0)
(1.01699 0.00521765 0)
(1.0157 0.00472473 0)
(1.01479 0.00402198 0)
(1.01419 0.00325836 0)
(1.01379 0.0025198 0)
(1.01355 0.00184795 0)
(1.0134 0.00126019 0)
(1.01264 0.000755177 0)
(0.966638 0.000324716 0)
(0.351047 3.04048e-05 0)
(0.356799 4.02807e-05 0)
(1.01826 0.000656124 0)
(1.02511 0.00122003 0)
(1.02499 0.00188482 0)
(1.02469 0.00265491 0)
(1.0242 0.00352752 0)
(1.02345 0.0044747 0)
(1.02235 0.00543219 0)
(1.0208 0.00626785 0)
(1.01878 0.00674932 0)
(1.01667 0.00660019 0)
(1.01499 0.00593126 0)
(1.0138 0.00502169 0)
(1.01299 0.00405371 0)
(1.01246 0.00312786 0)
(1.01213 0.00229215 0)
(1.01193 0.00156155 0)
(1.01115 0.000937479 0)
(0.96514 0.000403244 0)
(0.350345 3.80087e-05 0)
(0.357722 5.23305e-05 0)
(1.02014 0.000851668 0)
(1.02696 0.00158424 0)
(1.0268 0.0024448 0)
(1.02642 0.00344218 0)
(1.02581 0.00456725 0)
(1.02486 0.00578348 0)
(1.02346 0.00700075 0)
(1.0215 0.00804452 0)
(1.01892 0.00861733 0)
(1.01623 0.00838112 0)
(1.01407 0.00749933 0)
(1.01252 0.00632952 0)
(1.01147 0.00509873 0)
(1.01078 0.00392887 0)
(1.01036 0.0028771 0)
(1.0101 0.00195978 0)
(1.00928 0.00117753 0)
(0.963267 0.000507115 0)
(0.349463 4.75724e-05 0)
(0.358918 6.78753e-05 0)
(1.02257 0.00110073 0)
(1.02936 0.00204689 0)
(1.02913 0.00315767 0)
(1.02865 0.00444289 0)
(1.02787 0.00588983 0)
(1.02665 0.00744675 0)
(1.02487 0.00899531 0)
(1.02237 0.010308 0)
(1.01908 0.0110018 0)
(1.01563 0.0106609 0)
(1.01287 0.00951182 0)
(1.01089 0.00801238 0)
(1.00955 0.00644635 0)
(1.00867 0.00496429 0)
(1.00812 0.00363269 0)
(1.00779 0.00247499 0)
(1.00693 0.00148571 0)
(0.960906 0.000640592 0)
(0.348354 6.02196e-05 0)
(0.360468 8.8188e-05 0)
(1.02571 0.00142215 0)
(1.03245 0.00264293 0)
(1.03214 0.00407541 0)
(1.03152 0.00572975 0)
(1.03051 0.0075877 0)
(1.02895 0.00957998 0)
(1.02665 0.0115498 0)
(1.02344 0.0132018 0)
(1.01924 0.0140457 0)
(1.01485 0.0135689 0)
(1.01133 0.0120794 0)
(1.00882 0.01016 0)
(1.00711 0.00816531 0)
(1.00599 0.00628295 0)
(1.00529 0.00459555 0)
(1.00487 0.00313061 0)
(1.00396 0.00187831 0)
(0.957922 0.000809569 0)
(0.346953 7.60263e-05 0)
(0.362481 0.000115226 0)
(1.02976 0.00184187 0)
(1.03644 0.00341849 0)
(1.03602 0.00526591 0)
(1.03521 0.00739712 0)
(1.0339 0.00978447 0)
(1.03187 0.0123335 0)
(1.02891 0.014836 0)
(1.02478 0.0169096 0)
(1.01941 0.0179305 0)
(1.01382 0.0172686 0)
(1.00936 0.0153387 0)
(1.00617 0.0128834 0)
(1.00401 0.0103459 0)
(1.00259 0.00795652 0)
(1.0017 0.00581869 0)
(1.00118 0.00396121 0)
(1.0002 0.00237746 0)
(0.954151 0.00102361 0)
(0.345185 9.60781e-05 0)
(0.365105 0.000151528 0)
(1.035 0.00239353 0)
(1.0416 0.004436 0)
(1.04104 0.00682595 0)
(1.03997 0.00957652 0)
(1.03824 0.012646 0)
(1.0356 0.0159055 0)
(1.03175 0.0190787 0)
(1.02644 0.0216681 0)
(1.01957 0.0228841 0)
(1.01246 0.0219627 0)
(1.00682 0.0194649 0)
(1.0028 0.0163262 0)
(1.00006 0.0130996 0)
(0.998277 0.01007 0)
(0.99716 0.0073613 0)
(0.996498 0.0050092 0)
(0.995444 0.00300495 0)
(0.949378 0.00129212 0)
(0.342952 0.000120454 0)
(0.368554 0.00020117 0)
(1.04181 0.00312895 0)
(1.04829 0.00578622 0)
(1.04752 0.00888909 0)
(1.04611 0.0124489 0)
(1.04382 0.0164032 0)
(1.04035 0.0205694 0)
(1.03533 0.0245771 0)
(1.02847 0.0277821 0)
(1.01968 0.0291927 0)
(1.01068 0.0279021 0)
(1.00356 0.0246675 0)
(0.998508 0.0206653 0)
(0.995069 0.0165701 0)
(0.99282 0.0127325 0)
(0.991413 0.0093053 0)
(0.990581 0.00633282 0)
(0.989428 0.00379704 0)
(0.943346 0.00163215 0)
(0.340139 0.000151776 0)
(0.373128 0.000271343 0)
(1.05071 0.0041251 0)
(1.05702 0.00760742 0)
(1.05596 0.0116591 0)
(1.05405 0.0162862 0)
(1.05099 0.0213865 0)
(1.04638 0.0267027 0)
(1.03979 0.0317316 0)
(1.0309 0.0356422 0)
(1.01968 0.0372078 0)
(1.00832 0.035388 0)
(0.9994 0.0312036 0)
(0.993065 0.0261117 0)
(0.988749 0.0209316 0)
(0.985922 0.0160854 0)
(0.984151 0.011756 0)
(0.983101 0.00799951 0)
(0.98182 0.00479574 0)
(0.93572 0.00205961 0)
(0.336595 0.000190699 0)
(0.37929 0.000373832 0)
(1.06243 0.00551133 0)
(1.0685 0.0101186 0)
(1.067 0.0154516 0)
(1.06436 0.0214969 0)
(1.06018 0.0280885 0)
(1.05397 0.0348439 0)
(1.04526 0.041083 0)
(1.03374 0.0457464 0)
(1.01946 0.0473527 0)
(1.00521 0.0447704 0)
(0.994089 0.039374 0)
(0.986187 0.0329309 0)
(0.98078 0.0264084 0)
(0.97722 0.0203067 0)
(0.97498 0.0148523 0)
(0.973648 0.0101114 0)
(0.972202 0.00606216 0)
(0.926082 0.00260087 0)
(0.332129 0.000240135 0)
(0.387785 0.000532506 0)
(1.07806 0.00752064 0)
(1.08373 0.0137106 0)
(1.08154 0.0208051 0)
(1.07778 0.0287536 0)
(1.07193 0.0372668 0)
(1.06344 0.0457763 0)
(1.05183 0.0533616 0)
(1.03688 0.0587108 0)
(1.01882 0.0601149 0)
(1.0011 0.056446 0)
(0.987352 0.0495248 0)
(0.97755 0.0414401 0)
(0.970786 0.0332916 0)
(0.966286 0.0256537 0)
(0.963425 0.0187967 0)
(0.961712 0.0128148 0)
(0.960039 0.00769244 0)
(0.913886 0.00330282 0)
(0.32648 0.000305375 0)
(0.399966 0.000804923 0)
(1.09921 0.0106971 0)
(1.1042 0.0191878 0)
(1.10084 0.0287368 0)
(1.0952 0.0392239 0)
(1.08673 0.0501447 0)
(1.07489 0.0606407 0)
(1.05933 0.0695219 0)
(1.04003 0.0752689 0)
(1.01741 0.0760228 0)
(0.995657 0.0708216 0)
(0.978863 0.062029 0)
(0.966806 0.0520213 0)
(0.958351 0.0419745 0)
(0.952609 0.0325102 0)
(0.94888 0.0239414 0)
(0.946614 0.0164013 0)
(0.944615 0.00989017 0)
(0.898385 0.00426705 0)
(0.319254 0.000397387 0)
(0.41875 0.00139635 0)
(1.12856 0.0165975 0)
(1.13228 0.028469 0)
(1.12653 0.0413353 0)
(1.11747 0.0550202 0)
(1.10472 0.0686518 0)
(1.08797 0.0810167 0)
(1.06716 0.0907318 0)
(1.0425 0.0962032 0)
(1.01462 0.0955841 0)
(0.98838 0.0882739 0)
(0.968218 0.0772566 0)
(0.953584 0.0651103 0)
(0.943074 0.0529967 0)
(0.935678 0.0415153 0)
(0.930671 0.0309793 0)
(0.92751 0.0215581 0)
(0.924966 0.0132623 0)
(0.878573 0.00590142 0)
(0.309775 0.000564639 0)
(0.449267 0.00324983 0)
(1.17154 0.0298728 0)
(1.17178 0.0460092 0)
(1.16047 0.0626464 0)
(1.14498 0.079634 0)
(1.12541 0.0954894 0)
(1.10181 0.108774 0)
(1.07435 0.118168 0)
(1.04343 0.122202 0)
(1.00979 0.119193 0)
(0.978854 0.109089 0)
(0.955186 0.0955247 0)
(0.937775 0.0811692 0)
(0.924871 0.0670547 0)
(0.915328 0.0536994 0)
(0.908379 0.0413277 0)
(0.903534 0.0301176 0)
(0.899643 0.0198463 0)
(0.853173 0.00988762 0)
(0.297413 0.00099181 0)
(0.494933 0.0163002 8.58335e-20)
(1.23317 0.0619885 7.68435e-20)
(1.22278 0.080069 -2.66221e-20)
(1.201 0.0993796 0)
(1.1759 0.117817 -6.22995e-34)
(1.14747 0.133678 8.94988e-21)
(1.11562 0.145872 -1.51703e-20)
(1.08055 0.153326 0)
(1.04266 0.1547 2.9069e-34)
(1.00266 0.148432 -1.67408e-20)
(0.96657 0.135109 0)
(0.938973 0.118963 -1.8928e-20)
(0.918271 0.102647 -5.5193e-20)
(0.902304 0.0870286 -2.58874e-20)
(0.889703 0.0725927 -7.68606e-21)
(0.879526 0.0596055 -4.54995e-21)
(0.871142 0.0483858 0)
(0.863432 0.0387359 3.20145e-21)
(0.816863 0.0288979 3.78406e-21)
(0.282795 0.00895803 6.8427e-20)
(0.517545 0.0471632 7.11841e-20)
(1.28894 0.121757 5.13789e-22)
(1.26837 0.136916 7.59365e-21)
(1.23732 0.153555 0)
(1.20349 0.169344 -3.31499e-20)
(1.16676 0.182783 -3.65631e-20)
(1.12708 0.19257 -1.56883e-20)
(1.0845 0.197488 -5.27921e-20)
(1.03932 0.196068 0)
(0.992105 0.186754 7.11647e-20)
(0.949509 0.170637 6.87556e-20)
(0.91661 0.152529 1.99743e-20)
(0.89145 0.135082 7.11425e-20)
(0.871481 0.119102 9.866e-20)
(0.855052 0.104933 0)
(0.841088 0.0929847 1.3832e-19)
(0.828883 0.0834159 1.9941e-19)
(0.817542 0.0766203 2.22183e-19)
(0.772473 0.0683315 -2.54444e-19)
(0.271118 0.025097 -4.5924e-21)
(0.515101 0.0778379 0)
(1.3253 0.198571 1.60037e-20)
(1.30065 0.208041 0)
(1.26362 0.218895 -5.09076e-20)
(1.22339 0.229711 0)
(1.18016 0.238803 -7.49901e-20)
(1.13393 0.244733 3.27314e-20)
(1.08482 0.245981 -1.09143e-19)
(1.03319 0.240961 -1.18499e-21)
(0.979665 0.228027 3.717e-20)
(0.931638 0.208888 1.481e-19)
(0.894624 0.188909 5.94478e-23)
(0.866344 0.170704 -5.09234e-20)
(0.843985 0.154795 -9.06759e-20)
(0.825824 0.141316 1.07309e-19)
(0.810774 0.130357 -1.89598e-19)
(0.798029 0.121981 -2.5067e-20)
(0.786636 0.116071 0)
(0.74358 0.107042 1.23194e-21)
(0.265003 0.0392554 0)
(0.516264 0.106961 2.58171e-19)
(1.34499 0.274072 -1.25138e-19)
(1.31903 0.280383 -8.41992e-20)
(1.27931 0.28709 2.59957e-20)
(1.23544 0.293521 -4.28265e-20)
(1.18774 0.29827 1.59179e-19)
(1.1364 0.300019 6.90962e-20)
(1.08179 0.297195 0)
(1.02449 0.288131 -1.93897e-19)
(0.965352 0.271124 0)
(0.912686 0.248537 -7.77077e-20)
(0.872519 0.226334 -9.22449e-20)
(0.842228 0.206938 -5.42897e-20)
(0.818651 0.190559 -6.46702e-20)
(0.799858 0.177056 0)
(0.784566 0.166232 0)
(0.771901 0.157975 -1.60765e-19)
(0.760715 0.152169 3.16401e-20)
(0.719078 0.141605 -1.87922e-20)
(0.258222 0.0519527 -2.18527e-20)
(0.517623 0.134714 -1.51088e-19)
(1.35704 0.347644 0)
(1.32969 0.351713 2.01654e-19)
(1.28782 0.355059 8.03306e-20)
(1.24118 0.357818 9.50735e-20)
(1.19 0.358751 0)
(1.13453 0.356599 7.10051e-20)
(1.07527 0.349737 1.22511e-19)
(1.01302 0.336445 1.01281e-19)
(0.948976 0.31499 1.70247e-19)
(0.892438 0.288474 0)
(0.849913 0.263517 -1.95331e-19)
(0.818365 0.242374 -1.14475e-19)
(0.794219 0.224971 -6.65596e-20)
(0.775287 0.21085 4.00823e-19)
(0.760136 0.199619 4.73692e-20)
(0.747733 0.191023 2.25358e-19)
(0.736914 0.184799 -1.07358e-18)
(0.696684 0.172634 6.36685e-19)
(0.251856 0.0634124 -7.69148e-19)
(0.518676 0.161231 -1.30998e-19)
(1.36346 0.418256 3.22073e-20)
(1.33479 0.420998 -2.88465e-20)
(1.29127 0.421759 -1.03726e-19)
(1.24236 0.421523 -9.37103e-20)
(1.18828 0.419174 1.63372e-21)
(1.12926 0.413435 -7.65709e-20)
(1.06588 0.402713 1.29163e-19)
(0.999143 0.385138 -2.16988e-19)
(0.93064 0.358969 0)
(0.870748 0.327995 -9.00576e-20)
(0.826429 0.299693 -3.3732e-22)
(0.794165 0.276282 -1.22013e-19)
(0.769883 0.257348 0)
(0.751143 0.242208 -8.48457e-20)
(0.736361 0.230179 -1.99697e-19)
(0.724396 0.220988 5.35295e-19)
(0.714031 0.214127 -5.30579e-19)
(0.675228 0.200335 7.52951e-19)
(0.245619 0.0737144 -7.84072e-19)
(0.519739 0.186761 -1.72537e-21)
(1.3662 0.486219 -3.12746e-20)
(1.33619 0.487937 -1.14945e-19)
(1.29113 0.486645 5.2006e-20)
(1.24021 0.483958 -4.9641e-20)
(1.18353 0.478817 0)
(1.12128 0.469891 -7.73716e-20)
(1.0541 0.455553 -1.37218e-19)
(0.983125 0.433753 -1.14612e-19)
(0.910403 0.402608 0)
(0.84746 0.36664 -9.35607e-20)
(0.80177 0.33441 -1.0931e-19)
(0.769196 0.308222 1.28766e-19)
(0.745168 0.28732 -7.6754e-20)
(0.726909 0.270812 -3.54599e-19)
(0.712678 0.257859 2.1015e-19)
(0.701289 0.247798 6.27231e-20)
(0.691465 0.240229 0)
(0.654133 0.224861 -7.00189e-19)
(0.239572 0.0830007 -2.53947e-20)
(0.520919 0.211549 -1.63699e-20)
(1.36646 0.551483 3.14468e-20)
(1.33505 0.552482 6.11961e-20)
(1.28851 0.549533 1.73641e-19)
(1.23569 0.544857 -2.04304e-19)
(1.17655 0.537299 1.86284e-19)
(1.11129 0.525581 1.67374e-19)
(1.04043 0.507859 -2.20603e-19)
(0.965331 0.481968 6.52388e-20)
(0.888395 0.445676 -4.12996e-19)
(0.822475 0.404185 -1.01318e-19)
(0.775684 0.367401 0)
(0.743187 0.33787 1.35393e-19)
(0.719772 0.314691 1.57192e-19)
(0.702277 0.296612 1.85992e-19)
(0.68882 0.282456 -2.18844e-19)
(0.678152 0.271534 -6.414e-20)
(0.668951 0.26322 7.72673e-20)
(0.633117 0.246325 0)
(0.233942 0.0914613 -5.31521e-20)
(0.522263 0.235645 1.56798e-19)
(1.36506 0.614105 -1.23207e-19)
(1.33216 0.614644 -6.54686e-20)
(1.28417 0.610375 1.20666e-19)
(1.22952 0.603994 -1.04969e-19)
(1.16805 0.59442 -3.14742e-21)
(1.09982 0.580261 -1.82047e-19)
(1.02537 0.559505 -7.95075e-20)
(0.946074 0.529724 -1.98745e-19)
(0.864717 0.488144 4.96192e-22)
(0.795684 0.440551 -3.19388e-19)
(0.747949 0.398464 2.46203e-19)
(0.715931 0.365041 -1.41383e-19)
(0.693568 0.339197 1.64261e-19)
(0.677206 0.319355 0)
(0.664778 0.304019 -1.11996e-19)
(0.654966 0.292277 -2.0235e-21)
(0.646497 0.283213 -3.14985e-19)
(0.612266 0.264978 -4.72992e-20)
(0.228771 0.0991823 0)
(0.52354 0.258835 0)
(1.36257 0.674297 -1.34271e-19)
(1.32814 0.674485 -1.30775e-19)
(1.27868 0.669128 -1.25958e-19)
(1.22224 0.661345 -1.18466e-19)
(1.15848 0.650052 0)
(1.08741 0.633788 -9.1639e-20)
(1.00936 0.610354 -1.25362e-22)
(0.925729 0.576944 4.2757e-19)
(0.83956 0.530052 -5.83991e-20)
(0.767006 0.475793 -2.27702e-19)
(0.718322 0.427492 1.30536e-19)
(0.687211 0.389471 1.18886e-21)
(0.666485 0.360548 1.70563e-19)
(0.651786 0.338846 9.9875e-20)
(0.640732 0.322385 -2.35137e-19)
(0.632014 0.309856 2.74474e-19)
(0.624378 0.300257 8.01127e-20)
(0.591817 0.280906 3.3613e-19)
(0.224252 0.106363 -9.00357e-19)
(0.525131 0.281677 2.95089e-20)
(1.35938 0.732141 -6.43026e-20)
(1.32333 0.732041 5.94418e-20)
(1.27248 0.725756 1.29272e-19)
(1.21425 0.716792 0)
(1.14833 0.704062 -1.06301e-19)
(1.07443 0.686007 3.02875e-19)
(0.992852 0.660351 1.81992e-19)
(0.904621 0.623687 0)
(0.813113 0.571694 -8.25533e-19)
(0.736251 0.51014 6.07608e-19)
(0.686465 0.454455 0)
(0.656781 0.410777 1.53485e-19)
(0.638514 0.378377 2.44855e-21)
(0.626189 0.354767 -3.02782e-19)
(0.617007 0.337442 1.20214e-19)
(0.60966 0.324411 0)
(0.603016 0.314478 4.09807e-19)
(0.572235 0.29449 0)
(0.221047 0.1135 -4.00149e-19)
(0.52703 0.304286 -2.96755e-20)
(1.35564 0.787791 -6.04794e-20)
(1.31808 0.787346 6.57385e-20)
(1.26584 0.780245 0)
(1.20593 0.770304 -1.28031e-19)
(1.13786 0.756407 0)
(1.06128 0.736907 -3.15957e-19)
(0.976144 0.709418 -9.23722e-20)
(0.883175 0.670024 8.04861e-20)
(0.785646 0.613162 -4.09886e-19)
(0.703456 0.543923 6.51119e-20)
(0.651909 0.479469 0)
(0.624186 0.428664 -3.19525e-19)
(0.609538 0.391984 -3.13097e-21)
(0.600799 0.36648 0)
(0.594328 0.348643 -1.02037e-21)
(0.588774 0.335787 3.47622e-19)
(0.583257 0.326049 -3.29288e-19)
(0.554438 0.305993 9.70732e-20)
(0.219685 0.120859 0)
(0.528648 0.325928 0)
(1.35147 0.841143 -5.93172e-20)
(1.3125 0.84036 -6.19756e-20)
(1.25893 0.832575 -2.39013e-21)
(1.19743 0.821814 -6.2413e-20)
(1.12739 0.806942 -2.47343e-19)
(1.04824 0.78633 1.1627e-19)
(0.959629 0.757449 -1.04051e-19)
(0.861851 0.715942 3.53197e-19)
(0.757525 0.6549 -6.66449e-19)
(0.668469 0.577688 -1.79886e-21)
(0.614069 0.502769 -1.53736e-19)
(0.588644 0.442707 4.97726e-19)
(0.579334 0.400447 4.79467e-21)
(0.576041 0.373004 -2.02678e-19)
(0.573645 0.355496 -3.5605e-19)
(0.570591 0.343742 0)
(0.566397 0.335232 0)
(0.539655 0.31619 9.60403e-20)
(0.220938 0.129197 -5.46333e-20)
(0.530702 0.347297 -2.63722e-20)
(1.34715 0.892322 1.23457e-19)
(1.30679 0.891138 6.6891e-20)
(1.25195 0.882715 0)
(1.18895 0.871251 -1.13076e-21)
(1.11706 0.855613 -2.54842e-19)
(1.03554 0.834195 3.01342e-19)
(0.943622 0.804377 4.33716e-19)
(0.840928 0.761519 4.72615e-19)
(0.729142 0.69721 -5.60407e-19)
(0.631394 0.612095 -5.32649e-19)
(0.572151 0.524867 4.12493e-19)
(0.549031 0.452372 0)
(0.54734 0.402234 -8.84543e-20)
(0.552576 0.372618 -2.0135e-19)
(0.556573 0.356676 -2.29249e-19)
(0.557127 0.34786 -2.64085e-19)
(0.554421 0.342359 7.50428e-20)
(0.529733 0.325946 -4.70896e-20)
(0.226026 0.139482 -3.26049e-21)
(0.532264 0.368017 0)
(1.34265 0.941285 0)
(1.301 0.939671 2.27035e-21)
(1.24497 0.930613 0)
(1.18059 0.918529 2.04898e-19)
(1.10706 0.902266 1.97214e-19)
(1.02339 0.880255 0)
(0.928371 0.850008 5.58993e-20)
(0.820899 0.806591 8.12924e-19)
(0.701115 0.740255 -1.29888e-18)
(0.592477 0.648087 0)
(0.525347 0.546821 -2.68819e-19)
(0.503465 0.457402 5.80006e-21)
(0.512278 0.395313 5.72824e-21)
(0.531126 0.362507 1.95162e-19)
(0.545511 0.350263 -2.22946e-21)
(0.551279 0.34738 -4.87594e-19)
(0.550401 0.347833 1.42818e-19)
(0.527463 0.336843 4.07209e-20)
(0.236413 0.152925 0)
(0.533545 0.387976 6.04162e-20)
(1.33799 0.988047 5.87846e-20)
(1.29522 0.985977 1.30742e-19)
(1.23808 0.976311 -2.81374e-19)
(1.17245 0.963613 3.53393e-19)
(1.09752 0.946824 0)
(1.01189 0.924467 2.02206e-19)
(0.914121 0.894224 -1.22921e-19)
(0.802087 0.851052 2.82159e-21)
(0.673971 0.784176 9.46554e-20)
(0.552324 0.686623 7.22653e-19)
(0.472796 0.570226 -9.80014e-20)
(0.449145 0.457874 -2.93787e-19)
(0.471753 0.376551 -8.07811e-20)
(0.512824 0.33827 8.84918e-20)
(0.543902 0.333382 -4.27772e-21)
(0.557696 0.342317 1.07576e-19)
(0.558621 0.35272 -2.60805e-19)
(0.537609 0.351196 2.94176e-19)
(0.254367 0.171563 4.67337e-20)
(0.534228 0.407058 -1.71681e-20)
(1.33317 1.03263 2.96352e-20)
(1.28944 1.03007 6.40207e-21)
(1.23136 1.0198 -1.39818e-19)
(1.16463 1.00649 -6.94875e-20)
(1.08846 0.989258 -3.71653e-19)
(1.00125 0.966699 6.74239e-20)
(0.901001 0.936805 -5.2458e-19)
(0.784773 0.894664 -9.38673e-19)
(0.648337 0.828933 -8.09492e-19)
(0.51171 0.728508 0)
(0.414157 0.597367 -4.23509e-19)
(0.382351 0.455162 4.07963e-19)
(0.421049 0.341556 0)
(0.497346 0.291792 -1.67413e-19)
(0.559316 0.300431 6.86791e-20)
(0.586279 0.331675 -8.71271e-20)
(0.587288 0.361738 -1.05085e-19)
(0.562911 0.374303 -1.94078e-19)
(0.280584 0.196935 -1.50946e-19)
(0.535266 0.425736 1.45239e-20)
(1.32815 1.07502 -3.16618e-20)
(1.28357 1.07196 -9.01897e-20)
(1.22476 1.06104 -1.78186e-19)
(1.15721 1.04711 1.52809e-19)
(1.07996 1.02949 -2.31134e-19)
(0.991507 1.00696 2.20369e-19)
(0.889215 0.977586 -5.56933e-19)
(0.769221 0.937122 -5.6901e-19)
(0.624811 0.874259 8.80698e-19)
(0.471928 0.774491 1.67095e-18)
(0.349871 0.631374 0)
(0.298479 0.452769 0)
(0.350824 0.286043 -8.0562e-20)
(0.484264 0.207519 0)
(0.607046 0.241918 9.45514e-20)
(0.653517 0.320445 1.12489e-19)
(0.642622 0.384023 0)
(0.59834 0.415908 0)
(0.305419 0.228848 1.23797e-19)
(0.535561 0.443087 -8.68709e-21)
(1.32297 1.11521 -1.69001e-20)
(1.27759 1.11163 -6.25705e-20)
(1.21813 1.10006 1.41399e-19)
(1.15004 1.08559 1.56921e-19)
(1.07208 1.06756 2.77913e-19)
(0.982763 1.0452 -3.12621e-19)
(0.878824 1.01661 -2.85858e-21)
(0.755689 0.978197 -4.32716e-21)
(0.604021 0.919744 4.09031e-21)
(0.434501 0.82475 8.80811e-19)
(0.281631 0.675685 0)
(0.192884 0.457803 4.15792e-19)
(0.24336 0.205538 1.65165e-19)
(0.468356 0.0531688 1.85842e-20)
(0.723121 0.135235 -2.12658e-20)
(0.787347 0.329263 -4.94571e-21)
(0.719223 0.45698 -3.52205e-20)
(0.641417 0.480805 0)
(0.330442 0.268601 1.15182e-19)
(0.53638 0.460452 5.6664e-21)
(1.31757 1.15342 0)
(1.27163 1.14908 -5.70285e-20)
(1.21163 1.13678 1.08486e-19)
(1.14302 1.12182 -1.57296e-19)
(1.06461 1.10354 -3.66158e-19)
(0.974877 1.08126 6.52567e-19)
(0.869864 1.05376 -4.07379e-20)
(0.74441 1.01787 0)
(0.586675 0.964834 -1.02236e-18)
(0.401207 0.878792 -2.00321e-18)
(0.213057 0.733385 7.32375e-20)
(0.0633888 0.482274 6.18937e-19)
(0.0688367 0.0993443 0)
(0.416642 -0.243453 -2.57628e-19)
(0.976622 -0.112293 0)
(1.11965 0.304425 0)
(0.897304 0.545536 -2.74206e-21)
(0.672313 0.553507 0)
(0.32666 0.268396 3.44838e-20)
(0.53647 0.476561 -4.4266e-21)
(1.31186 1.18977 0)
(1.2656 1.18447 -8.03003e-20)
(1.20534 1.17146 0)
(1.13637 1.15598 7.73032e-20)
(1.0575 1.13749 0)
(0.967479 1.11552 3.88216e-20)
(0.86204 1.08922 8.10779e-20)
(0.735152 1.05642 7.41467e-20)
(0.572984 1.00987 -1.14819e-18)
(0.373683 0.936565 6.37939e-20)
(0.148442 0.807435 5.88023e-19)
(-0.0895431 0.54648 6.30669e-19)
(-0.241106 0.00242278 4.58378e-20)
(0.0457405 -0.47626 -5.94028e-19)
(0.936814 0.0122103 0)
(1.22626 0.717467 -4.88024e-19)
(0.970207 1.06365 1.0249e-19)
(0.443692 0.839356 1.31906e-19)
(-0.0584669 0.999124 -2.84294e-19)
(0.536693 0.492396 1.19311e-20)
(1.30582 1.22438 -3.20425e-20)
(1.25938 1.21801 0)
(1.19906 1.20452 5.17779e-21)
(1.12996 1.18883 -1.9259e-19)
(1.05077 1.17029 6.2346e-19)
(0.960488 1.14882 2.51762e-19)
(0.854776 1.12417 0)
(0.727398 1.09497 5.16545e-19)
(0.56259 1.05703 -6.3081e-20)
(0.35332 1.00069 0)
(0.0946962 0.903126 0)
(-0.254826 0.695316 6.30481e-19)
(-0.741725 0.329224 -2.45883e-20)
(-0.841628 0.474957 7.15473e-19)
(-0.0117436 1.47066 0)
(0.637993 1.99139 -4.48315e-19)
(0.485882 2.08949 1.34157e-19)
(0.214152 2.81082 -7.7079e-20)
(0.127938 3.18807 -2.1906e-20)
(0.537001 0.507346 -1.81449e-20)
(1.29922 1.2572 2.6063e-20)
(1.25314 1.24958 -3.89673e-20)
(1.19289 1.23573 -6.6697e-20)
(1.12371 1.21998 0)
(1.04436 1.20165 4.23436e-19)
(0.954366 1.18091 3.79232e-19)
(0.848412 1.15779 -4.21036e-20)
(0.720841 1.13246 7.72139e-20)
(0.555497 1.10397 1.13336e-18)
(0.342016 1.06897 1.09942e-18)
(0.066701 1.01562 7.40104e-19)
(-0.340467 0.924337 6.92422e-19)
(-0.949944 0.909002 -3.35428e-19)
(-1.36728 1.56657 7.43842e-19)
(-0.82322 2.68304 0)
(-0.242329 3.2 0)
(-0.0596985 3.43165 -1.10811e-19)
(-0.000340372 3.45525 0)
(0.0110925 3.36797 -1.63276e-19)
(0.539104 0.524979 0)
(1.29156 1.28781 0)
(1.24664 1.27881 0)
(1.18668 1.26495 -1.41925e-20)
(1.11735 1.24925 -1.65404e-19)
(1.03791 1.23127 2.96438e-19)
(0.948852 1.21157 2.56657e-19)
(0.843198 1.19027 -4.24804e-20)
(0.715787 1.16855 6.80102e-19)
(0.551011 1.14927 -4.67261e-21)
(0.338456 1.13747 2.22705e-18)
(0.0647397 1.13628 -8.39839e-20)
(-0.319307 1.1659 9.40701e-20)
(-0.85513 1.34914 5.07027e-20)
(-1.28171 2.12393 -7.02407e-20)
(-0.913922 2.99712 -7.85981e-20)
(-0.527827 3.32198 6.21928e-19)
(-0.283926 3.3605 2.19803e-19)
(-0.150915 3.34892 -8.75758e-20)
(-0.0901744 3.3157 7.94493e-20)
(0.400413 0.453764 1.81616e-20)
(1.28332 1.31575 0)
(1.24058 1.30609 5.17078e-20)
(1.18101 1.29275 1.45826e-19)
(1.11166 1.27741 -2.91941e-19)
(1.03239 1.25983 -3.03318e-19)
(0.943985 1.23987 -2.81693e-19)
(0.839226 1.22012 5.33276e-19)
(0.713794 1.20243 -5.72252e-19)
(0.552095 1.19225 0)
(0.347408 1.20132 1.11693e-18)
(0.0955244 1.24365 -6.21872e-19)
(-0.217856 1.3538 0)
(-0.625474 1.65536 9.46557e-20)
(-0.930782 2.2901 4.22754e-20)
(-0.737259 2.90151 4.90074e-20)
(-0.46523 3.14372 -9.84897e-20)
(-0.283115 3.20505 -5.15192e-20)
(-0.179556 3.21639 -6.96358e-20)
(-0.115318 3.21933 -1.16116e-19)
(0.642072 0.637002 -3.21291e-21)
(1.2717 1.34084 0)
(1.231 1.34597 -3.35228e-20)
(1.17051 1.334 -1.18533e-19)
(1.10062 1.31917 2.64833e-19)
(1.02119 1.30218 2.7783e-19)
(0.931908 1.28379 3.62925e-19)
(0.828028 1.26667 4.15896e-20)
(0.704946 1.25555 5.87801e-19)
(0.548687 1.25914 1.06256e-18)
(0.355659 1.29722 6.67397e-20)
(0.134208 1.39642 5.71043e-19)
(-0.102443 1.59354 9.32221e-20)
(-0.308948 1.92435 -9.49648e-20)
(-0.392187 2.34251 -1.09137e-19)
(-0.309155 2.68726 3.99569e-20)
(-0.213314 2.87158 -3.83186e-21)
(-0.133446 2.99309 1.92286e-20)
(-0.0881436 3.07703 5.06252e-20)
(-0.0912702 3.15334 8.58678e-21)
(0.637616 0.637388 0)
(1.27069 1.3689 6.71896e-21)
(1.22605 1.37416 2.0913e-21)
(1.1645 1.36272 9.04805e-21)
(1.0943 1.34781 1.56635e-19)
(1.01521 1.33092 -2.61092e-19)
(0.926232 1.31295 -2.25919e-19)
(0.823864 1.2977 3.93919e-20)
(0.704165 1.28991 -6.32327e-19)
(0.555483 1.30133 -1.22602e-20)
(0.378122 1.35605 -2.11555e-18)
(0.190593 1.4764 7.90058e-20)
(0.0142291 1.68478 -8.89384e-20)
(-0.112254 1.98757 -8.00374e-20)
(-0.153733 2.32119 1.86833e-21)
(-0.105957 2.61177 -2.03045e-20)
(-0.0491881 2.82194 -2.45643e-20)
(-0.00468625 2.93323 -6.02238e-20)
(0.00938113 3.03363 9.67545e-20)
(-0.0339708 3.10859 7.43893e-20)
(0.608479 0.626451 4.0823e-20)
(1.26979 1.40217 5.98162e-20)
(1.22085 1.40547 4.20864e-21)
(1.15807 1.39334 3.47491e-20)
(1.08762 1.37811 0)
(1.00904 1.36131 -3.23757e-19)
(0.921268 1.34417 -3.1159e-19)
(0.821176 1.32987 3.69953e-20)
(0.703904 1.32284 -6.96446e-20)
(0.560227 1.33784 -1.03025e-18)
(0.398136 1.40086 -1.00571e-18)
(0.243053 1.53037 -6.82015e-19)
(0.123009 1.73924 -6.52206e-19)
(0.0567041 2.02074 5.61078e-19)
(0.0436851 2.30866 3.73615e-19)
(0.0824491 2.56512 0)
(0.122209 2.77292 0)
(0.147779 2.92858 7.66145e-20)
(0.126484 3.0359 0)
(0.0395343 3.09993 1.79495e-19)
(0.581478 0.620138 -8.25906e-20)
(1.26578 1.43868 -7.34673e-20)
(1.21396 1.43893 0)
(1.15025 1.42561 7.21283e-21)
(1.08018 1.41 1.15609e-19)
(1.00209 1.3924 -4.39216e-19)
(0.914643 1.37412 -1.92071e-19)
(0.816021 1.3593 3.10672e-20)
(0.703996 1.35526 -5.00993e-19)
(0.571193 1.37788 5.55058e-20)
(0.42807 1.45002 0)
(0.302981 1.58415 0)
(0.225848 1.78383 -6.08408e-19)
(0.211495 2.04535 2.13489e-19)
(0.231782 2.29869 2.3534e-19)
(0.273279 2.53103 0)