/*--------------------------------*- C++ -*----------------------------------*\
  =========                 |
  \\      /  F ield         | OpenFOAM: The Open Source CFD Toolbox
   \\    /   O peration     | Website:  https://openfoam.org
    \\  /    A nd           | Version:  9
     \\/     M anipulation  |
\*---------------------------------------------------------------------------*/
FoamFile
{
    format      ascii;
    class       volScalarField;
    location    "69";
    object      p;
}
// * * * * * * * * * * * * * * * * * * * * * * * * * * * * * * * * * * * * * //

dimensions      [0 2 -2 0 0 0 0];

internalField   nonuniform List<scalar> 
8800
(
0.890045
0.84226
0.803573
0.774582
0.753725
0.738904
0.728322
0.720863
0.716073
0.714057
0.71537
0.719598
0.72627
0.735607
0.748401
0.766145
0.790929
0.824874
0.867427
0.92613
0.721288
0.728967
0.736447
0.739758
0.73826
0.73319
0.726716
0.720657
0.71596
0.713153
0.71292
0.715469
0.719992
0.725962
0.732749
0.739041
0.742689
0.741957
0.736544
0.727858
0.699682
0.705842
0.709972
0.712922
0.714979
0.715594
0.714503
0.712422
0.710439
0.709577
0.710589
0.713013
0.715843
0.718047
0.71867
0.717482
0.715149
0.711762
0.707206
0.703446
0.693855
0.696507
0.699263
0.701671
0.703315
0.704488
0.705247
0.70539
0.705132
0.705133
0.70594
0.707156
0.70803
0.708121
0.70753
0.706453
0.704646
0.702083
0.699684
0.698181
0.688453
0.689879
0.691662
0.6937
0.695494
0.696848
0.697857
0.698684
0.699341
0.699963
0.700677
0.701225
0.701364
0.701107
0.700431
0.699199
0.697515
0.695676
0.694374
0.693542
0.683349
0.68427
0.685515
0.687089
0.688732
0.690273
0.691581
0.692681
0.693694
0.694654
0.695416
0.695805
0.69581
0.695406
0.694551
0.693371
0.692059
0.690809
0.689992
0.68944
0.678407
0.679077
0.680044
0.681355
0.682776
0.684252
0.685717
0.687078
0.688332
0.689517
0.690423
0.690864
0.690835
0.690369
0.689594
0.688671
0.687677
0.686767
0.686187
0.685781
0.673581
0.674097
0.674886
0.676025
0.677317
0.67871
0.680186
0.681702
0.683194
0.68462
0.685727
0.686283
0.686325
0.685992
0.685428
0.684732
0.683982
0.683314
0.682886
0.682568
0.668796
0.669207
0.669868
0.670885
0.672106
0.673456
0.674935
0.676541
0.678236
0.679937
0.681301
0.682061
0.682306
0.682199
0.681864
0.681384
0.680843
0.680369
0.680052
0.679793
0.663967
0.664301
0.664874
0.665813
0.666988
0.668326
0.669845
0.671555
0.673447
0.675448
0.677145
0.678213
0.678745
0.6789
0.678802
0.678553
0.67821
0.677899
0.677667
0.677449
0.659003
0.65928
0.659791
0.660685
0.661845
0.663211
0.664809
0.666666
0.668796
0.671147
0.673262
0.674725
0.675603
0.676058
0.676221
0.676205
0.676061
0.675894
0.67573
0.675541
0.653812
0.654045
0.654518
0.655398
0.656581
0.65802
0.659738
0.661798
0.664233
0.667018
0.669643
0.671581
0.672864
0.673665
0.674121
0.674345
0.674406
0.674371
0.674263
0.674094
0.648303
0.6485
0.648954
0.649849
0.651099
0.652653
0.654549
0.656878
0.6597
0.663026
0.666272
0.668775
0.670532
0.671729
0.672515
0.673
0.67328
0.673371
0.673311
0.673155
0.642369
0.642538
0.64299
0.643929
0.645286
0.647008
0.649148
0.651827
0.65514
0.659134
0.66313
0.666309
0.668626
0.670279
0.671443
0.672241
0.67274
0.672954
0.672934
0.672786
0.635891
0.636036
0.636501
0.637514
0.639025
0.640974
0.643435
0.64656
0.650488
0.655301
0.660205
0.66419
0.667172
0.669364
0.670959
0.672104
0.672852
0.673192
0.67321
0.673066
0.628726
0.628846
0.629339
0.630457
0.632174
0.634417
0.637291
0.640981
0.645673
0.651487
0.657485
0.662433
0.6662
0.669028
0.671134
0.672672
0.673704
0.674176
0.674229
0.674083
0.620684
0.620791
0.621325
0.622581
0.624563
0.627183
0.630579
0.634979
0.640614
0.647649
0.654964
0.661058
0.665751
0.669326
0.672044
0.674049
0.675395
0.676005
0.676088
0.675938
0.611542
0.611641
0.612233
0.613652
0.615964
0.619075
0.623135
0.628422
0.635224
0.643745
0.65264
0.660091
0.665878
0.670332
0.673774
0.676322
0.678024
0.67878
0.678892
0.678733
0.600977
0.601056
0.601737
0.603382
0.606131
0.609866
0.614762
0.621162
0.629409
0.639738
0.650519
0.659569
0.666641
0.67213
0.676396
0.679593
0.681694
0.6826
0.682735
0.682565
0.588607
0.588673
0.589454
0.59141
0.594717
0.599252
0.605217
0.613026
0.62307
0.635597
0.648618
0.659538
0.668095
0.674789
0.68002
0.683957
0.68649
0.687546
0.687698
0.687511
0.573866
0.57392
0.574845
0.577218
0.581267
0.586854
0.59421
0.603822
0.616111
0.631305
0.646965
0.660047
0.670302
0.678371
0.684717
0.689483
0.692471
0.693664
0.69382
0.693615
0.555977
0.55602
0.557159
0.560119
0.565181
0.572192
0.581401
0.593357
0.608466
0.62688
0.645615
0.661156
0.673328
0.682943
0.690513
0.696202
0.699641
0.700941
0.701088
0.700862
0.533761
0.533803
0.535291
0.539137
0.545661
0.554675
0.566424
0.581471
0.600129
0.622401
0.644663
0.662942
0.677222
0.688541
0.697442
0.704089
0.707929
0.709285
0.709402
0.709156
0.505448
0.50551
0.507594
0.512871
0.521672
0.533629
0.54896
0.568115
0.591204
0.618025
0.644247
0.665496
0.682026
0.695153
0.705475
0.713034
0.717165
0.718496
0.718561
0.718297
0.467963
0.46813
0.471438
0.479354
0.491996
0.508459
0.528898
0.553447
0.581955
0.614009
0.644554
0.668922
0.687782
0.702753
0.714504
0.722825
0.727057
0.728258
0.728251
0.727977
0.415413
0.416416
0.423001
0.436353
0.455675
0.479114
0.506602
0.537966
0.572855
0.610707
0.645791
0.673321
0.694501
0.711261
0.724314
0.733126
0.737198
0.738169
0.738084
0.737808
0.338763
0.346173
0.361416
0.384962
0.414232
0.447014
0.483114
0.52232
0.564274
0.608389
0.648302
0.67918
0.702829
0.721499
0.735742
0.744802
0.748552
0.749281
0.749147
0.748907
0.256423
0.273931
0.298624
0.332984
0.372605
0.414859
0.459612
0.506819
0.556186
0.607175
0.65273
0.687639
0.714193
0.735029
0.750542
0.759357
0.762374
0.762814
0.762709
0.762546
0.187763
0.208389
0.24088
0.284427
0.333171
0.384337
0.437482
0.49253
0.549156
0.606799
0.657686
0.696313
0.725446
0.748
0.763927
0.772127
0.77463
0.775011
0.774964
0.774841
0.131529
0.153825
0.19188
0.241918
0.29787
0.356541
0.41711
0.479354
0.542799
0.606775
0.66271
0.704802
0.736242
0.76013
0.776472
0.784435
0.786714
0.787062
0.787052
0.786959
0.0847482
0.108227
0.150097
0.205283
0.267027
0.331897
0.39884
0.467485
0.537185
0.6071
0.667843
0.71323
0.746889
0.7722
0.789095
0.79693
0.799192
0.799545
0.799562
0.799494
0.0451454
0.069274
0.114032
0.173285
0.239902
0.310051
0.382542
0.45689
0.532305
0.607783
0.673124
0.721729
0.757597
0.784315
0.801848
0.810022
0.812308
0.812634
0.812659
0.812612
0.010673
0.035214
0.0822394
0.144856
0.215595
0.290341
0.367758
0.447266
0.527967
0.608698
0.678459
0.730203
0.76825
0.796409
0.814823
0.823362
0.825759
0.826097
0.826128
0.826096
-0.0201852
0.00470937
0.0535809
0.119065
0.193367
0.272151
0.353998
0.438235
0.523867
0.609593
0.683634
0.738461
0.778692
0.808288
0.827546
0.836549
0.839142
0.83949
0.839519
0.8395
-0.048419
-0.023214
0.0272314
0.0951995
0.172631
0.255006
0.34085
0.429432
0.519696
0.61022
0.688443
0.746302
0.788644
0.819686
0.839747
0.849184
0.851992
0.852403
0.852413
0.8524
-0.0748498
-0.0492926
0.00256509
0.0727078
0.15294
0.238524
0.327988
0.420584
0.515222
0.610379
0.692719
0.753567
0.797978
0.830381
0.851197
0.861051
0.864024
0.864467
0.864458
0.864432
-0.0998684
-0.0739619
-0.0207833
0.0512168
0.133959
0.222429
0.315186
0.411496
0.51026
0.609908
0.696335
0.760169
0.806604
0.840286
0.861755
0.871883
0.874982
0.87543
0.87539
0.875351
-0.123932
-0.0976067
-0.0434111
0.0304857
0.115458
0.206524
0.30228
0.402014
0.504667
0.60868
0.69921
0.766079
0.814522
0.849373
0.871329
0.881647
0.884779
0.885212
0.885136
0.885082
-0.147182
-0.120369
-0.0652343
0.0103283
0.0972892
0.190687
0.289158
0.392047
0.498357
0.606609
0.70128
0.771286
0.821777
0.857703
0.880006
0.890338
0.893429
0.893843
0.893733
0.893663
-0.169771
-0.142545
-0.0863719
-0.00937204
0.0793752
0.174856
0.275771
0.381541
0.491268
0.603615
0.70248
0.775804
0.828469
0.865451
0.887928
0.898092
0.901069
0.901425
0.901291
0.901205
-0.191834
-0.164116
-0.10696
-0.0286647
0.0616694
0.159008
0.262112
0.370488
0.48337
0.59964
0.70275
0.779633
0.834715
0.872786
0.89527
0.905076
0.907806
0.908068
0.907914
0.907816
-0.213439
-0.18512
-0.127078
-0.0475636
0.0441834
0.143151
0.248199
0.358906
0.474668
0.59464
0.70202
0.782752
0.84061
0.879936
0.90227
0.911439
0.913746
0.913873
0.913695
0.913591
-0.234437
-0.205551
-0.146655
-0.0660609
0.0269307
0.127332
0.234077
0.34685
0.465198
0.588614
0.70021
0.785103
0.846202
0.887137
0.909282
0.91745
0.919025
0.918922
0.918733
0.918637
-0.254819
-0.225388
-0.165691
-0.0841197
0.00995424
0.111598
0.21982
0.334382
0.455019
0.581567
0.697254
0.786568
0.851461
0.894586
0.916791
0.923669
0.923971
0.923343
0.923148
0.923112
-0.274655
-0.244607
-0.184176
-0.101721
-0.00669266
0.0960205
0.205504
0.321591
0.444207
0.573546
0.693083
0.786989
0.856242
0.902319
0.92531
0.931062
0.929446
0.927545
0.927161
0.927465
-0.293789
-0.263194
-0.20206
-0.118816
-0.0229594
0.0806745
0.191216
0.30858
0.432867
0.564628
0.687663
0.786169
0.860283
0.910083
0.935026
0.940825
0.93753
0.933262
0.931364
0.931404
-0.312316
-0.281146
-0.219367
-0.135442
-0.0388816
0.0655166
0.176901
0.295294
0.420935
0.554742
0.680859
0.78383
0.863298
0.917446
0.945514
0.953512
0.950602
0.943362
0.935942
0.922526
-0.330169
-0.298451
-0.236211
-0.151797
-0.0547369
0.0502269
0.162159
0.281273
0.407905
0.543293
0.672073
0.779262
0.864832
0.923877
0.955379
0.967332
0.965347
0.95163
0.93077
0.920591
-0.347182
-0.315267
-0.252408
-0.16769
-0.070172
0.0351423
0.147207
0.266829
0.394062
0.530506
0.661309
0.771899
0.863915
0.928137
0.960587
0.972617
0.972204
0.946845
0.879706
0.849815
-0.362701
-0.332866
-0.267657
-0.18265
-0.0843848
0.0207636
0.132364
0.252189
0.379618
0.516491
0.648461
0.761352
0.858929
0.929386
0.95572
0.9627
0.94737
0.890758
0.821346
0.778864
-0.41728
-0.348373
-0.281431
-0.197805
-0.0990457
0.00559416
0.117556
0.237059
0.364187
0.500758
0.632865
0.74684
0.845757
0.923224
0.923885
0.922337
0.867151
0.793653
0.715876
0.672613
-0.37898
-0.363064
-0.301977
-0.217244
-0.120745
-0.0161369
0.094799
0.213692
0.33991
0.475237
0.605728
0.718571
0.810632
0.893979
0.875697
0.756033
0.646941
0.571091
0.496235
0.524944
-0.409165
-0.380175
-0.318218
-0.234335
-0.137883
-0.0333939
0.0778273
0.196099
0.321279
0.454869
0.582681
0.691371
0.77361
0.817784
0.765369
0.610614
0.479079
0.385199
0.285183
0.33352
-0.4324
-0.400496
-0.337431
-0.253429
-0.156861
-0.0524834
0.0586564
0.176097
0.299889
0.4311
0.555214
0.657613
0.730715
0.73985
0.628592
0.451718
0.295938
0.174808
0.0423322
0.0742319
-0.455078
-0.4217
-0.357523
-0.272625
-0.175991
-0.0717781
0.0388244
0.155295
0.277488
0.405909
0.525303
0.619604
0.676929
0.654209
0.491035
0.291419
0.0988046
-0.0707848
-0.260185
-0.27989
-0.477155
-0.443367
-0.378345
-0.292702
-0.195954
-0.0919836
0.0179473
0.133312
0.253631
0.378826
0.492724
0.578729
0.616082
0.556086
0.359939
0.14659
-0.0724838
-0.262935
-0.505426
-0.80138
-0.499521
-0.465751
-0.400231
-0.314139
-0.217236
-0.113463
-0.00414028
0.110071
0.228386
0.350055
0.458074
0.535462
0.550846
0.439113
0.245707
0.0331475
-0.17296
-0.346467
-0.416938
-0.495349
-0.523119
-0.489312
-0.423526
-0.337248
-0.240329
-0.136853
-0.0282379
0.0846363
0.200612
0.318191
0.419872
0.485897
0.475739
0.330185
0.144009
-0.0495114
-0.214372
-0.308564
-0.332947
-0.348754
-0.548254
-0.514344
-0.448399
-0.362104
-0.26536
-0.16236
-0.0547022
0.0565209
0.16972
0.282533
0.377369
0.428715
0.400565
0.228915
0.0517591
-0.116619
-0.245056
-0.284748
-0.297571
-0.298876
-0.575122
-0.541018
-0.474915
-0.388701
-0.292279
-0.189992
-0.0835531
0.0256738
0.135646
0.243096
0.330131
0.366756
0.318136
0.135405
-0.0326374
-0.183492
-0.261054
-0.27808
-0.279417
-0.279221
-0.603784
-0.569398
-0.503102
-0.41704
-0.321106
-0.219737
-0.114795
-0.0079196
0.0984019
0.199957
0.278268
0.302831
0.217627
0.0500716
-0.109518
-0.233919
-0.271187
-0.269507
-0.268568
-0.267967
-0.633955
-0.599312
-0.532859
-0.447038
-0.351756
-0.251544
-0.1484
-0.0442322
0.0580286
0.153232
0.222689
0.230084
0.126453
-0.0290091
-0.1702
-0.24778
-0.258188
-0.26079
-0.261449
-0.261171
-0.66509
-0.630304
-0.563932
-0.478471
-0.384045
-0.285259
-0.184216
-0.0831315
0.0147137
0.10328
0.163885
0.155981
0.0448081
-0.0959177
-0.214665
-0.246359
-0.255202
-0.256721
-0.256492
-0.256194
-0.696728
-0.661839
-0.595868
-0.510951
-0.417636
-0.320568
-0.221968
-0.12433
-0.0312511
0.0508094
0.100963
0.0858412
-0.0300253
-0.149958
-0.244818
-0.262401
-0.253703
-0.252799
-0.252761
-0.252524
-0.727973
-0.693209
-0.627824
-0.543879
-0.451992
-0.357002
-0.261211
-0.167352
-0.0793871
-0.00352621
0.0367433
0.0215256
-0.0953909
-0.190284
-0.246585
-0.256085
-0.252794
-0.251486
-0.250896
-0.250652
-0.757297
-0.723245
-0.658827
-0.576348
-0.486359
-0.393873
-0.301302
-0.211516
-0.128894
-0.0591175
-0.0222936
-0.0491254
-0.148299
-0.226362
-0.229607
-0.248282
-0.252531
-0.250945
-0.250362
-0.249958
-0.78309
-0.750103
-0.68776
-0.607198
-0.519715
-0.430261
-0.341387
-0.255983
-0.178651
-0.115066
-0.0782356
-0.116881
-0.194911
-0.245573
-0.263946
-0.259349
-0.257531
-0.256775
-0.256326
-0.255839
-0.803243
-0.771987
-0.712518
-0.635032
-0.550789
-0.46505
-0.380398
-0.299747
-0.22754
-0.170036
-0.135538
-0.171438
-0.233507
-0.292478
-0.310449
-0.287516
-0.274118
-0.270977
-0.269168
-0.268264
-0.815547
-0.786992
-0.731315
-0.657954
-0.578108
-0.496941
-0.417165
-0.341622
-0.274522
-0.222419
-0.19017
-0.215579
-0.254507
-0.31885
-0.301485
-0.285168
-0.279159
-0.276164
-0.27448
-0.274214
-0.817404
-0.792884
-0.742162
-0.6742
-0.599996
-0.524539
-0.450388
-0.38039
-0.318474
-0.270859
-0.234942
-0.246623
-0.240899
-0.270514
-0.263383
-0.260509
-0.260419
-0.260866
-0.261715
-0.261795
-0.806576
-0.786854
-0.7429
-0.682196
-0.615008
-0.546392
-0.478766
-0.414792
-0.358238
-0.314461
-0.271723
-0.258652
-0.206887
-0.166598
-0.191972
-0.229683
-0.249453
-0.257392
-0.26028
-0.260812
-0.781184
-0.766399
-0.731748
-0.680701
-0.622152
-0.561519
-0.501154
-0.443578
-0.392662
-0.353073
-0.305663
-0.283606
-0.22237
-0.13475
-0.183219
-0.247399
-0.276969
-0.288075
-0.291637
-0.293121
-0.743791
-0.73428
-0.709555
-0.669861
-0.621401
-0.569633
-0.516883
-0.465738
-0.420325
-0.385907
-0.357768
-0.350517
-0.386659
-0.458378
-0.488922
-0.427871
-0.383143
-0.362822
-0.356699
-0.355487
-0.70108
-0.695684
-0.681127
-0.652469
-0.614636
-0.571477
-0.525957
-0.480626
-0.439319
-0.40933
-0.387875
-0.420915
-0.514355
-0.671964
-0.656786
-0.507114
-0.40634
-0.360062
-0.346638
-0.343323
-0.662724
-0.659463
-0.652555
-0.633853
-0.60473
-0.568802
-0.529351
-0.488037
-0.448499
-0.416211
-0.395871
-0.37167
-0.300559
-0.196946
-0.0603742
-0.0355717
-0.117498
-0.196413
-0.218938
-0.221218
-0.635084
-0.63307
-0.629531
-0.618173
-0.595458
-0.56459
-0.528733
-0.48918
-0.447717
-0.408407
-0.386045
-0.326178
-0.243925
-0.169831
-0.225426
-0.390672
-0.534299
-0.538593
-0.458167
-0.441285
-0.613996
-0.613226
-0.612047
-0.606458
-0.589421
-0.561597
-0.526535
-0.486134
-0.441414
-0.395936
-0.361721
-0.33674
-0.314137
-0.373104
-0.468561
-0.570921
-0.69651
-0.730384
-0.679794
-0.645315
-0.601795
-0.601526
-0.600962
-0.598481
-0.586453
-0.559987
-0.523868
-0.480699
-0.432067
-0.375991
-0.330875
-0.294705
-0.283426
-0.33285
-0.467628
-0.609711
-0.624969
-0.53509
-0.421892
-0.363553
-0.593288
-0.593223
-0.592944
-0.592333
-0.584811
-0.559957
-0.521832
-0.475153
-0.419351
-0.35209
-0.283617
-0.20145
-0.105681
-0.0244378
0.0528983
0.130611
0.26894
0.453511
0.586676
0.643673
-0.586736
-0.586757
-0.586693
-0.58697
-0.582069
-0.560982
-0.521787
-0.470465
-0.407103
-0.331134
-0.234103
-0.130068
0.0700857
0.35271
0.672679
0.98954
1.27827
1.48165
1.58914
1.6237
-0.581777
-0.58158
-0.580868
-0.57932
-0.577619
-0.563246
-0.524302
-0.468099
-0.399339
-0.311764
-0.204753
-0.0975608
0.122236
0.463197
0.880761
1.27367
1.58821
1.7812
1.86493
1.88562
-0.580659
-0.580919
-0.581422
-0.581452
-0.581349
-0.571355
-0.529896
-0.470809
-0.398019
-0.305716
-0.198021
-0.0845761
0.0774571
0.421837
0.795393
1.13197
1.39234
1.54144
1.60241
1.61633
-0.581219
-0.582565
-0.586452
-0.594345
-0.601714
-0.584149
-0.537641
-0.479569
-0.405089
-0.310445
-0.206582
-0.101034
0.0208405
0.292952
0.593297
0.849082
1.03885
1.14206
1.18221
1.19041
-0.594248
-0.595102
-0.592296
-0.580594
-0.567727
-0.558047
-0.539421
-0.494841
-0.419681
-0.324136
-0.224475
-0.128486
-0.0371051
0.158504
0.378263
0.557617
0.68776
0.755005
0.779978
0.783661
-0.637697
-0.636154
-0.618493
-0.568287
-0.517524
-0.522707
-0.552781
-0.520504
-0.440353
-0.340339
-0.245428
-0.162556
-0.0912513
0.0469825
0.192728
0.307486
0.387543
0.427134
0.440631
0.442765
-0.709845
-0.708635
-0.716625
-0.72502
-0.719256
-0.699444
-0.670023
-0.574169
-0.466126
-0.356972
-0.266179
-0.19239
-0.132237
-0.0399764
0.0509644
0.116493
0.153546
0.17015
0.177067
0.178282
-0.854799
-0.876881
-0.931885
-0.988661
-1.00045
-0.956407
-0.824595
-0.644856
-0.490949
-0.368963
-0.280819
-0.219514
-0.171765
-0.105
-0.0505835
-0.017655
-0.00383833
-0.000267994
0.00430924
0.00655169
-0.959096
-0.985444
-1.03364
-1.07422
-1.08235
-1.03157
-0.874531
-0.664235
-0.491587
-0.365805
-0.285353
-0.237448
-0.205141
-0.151192
-0.107302
-0.0825961
-0.0708283
-0.0651848
-0.0601348
-0.0591457
-0.880735
-0.902257
-0.938554
-0.972577
-0.980068
-0.928422
-0.770947
-0.594424
-0.446546
-0.338092
-0.273275
-0.243096
-0.221863
-0.175892
-0.134341
-0.105279
-0.0865483
-0.0778158
-0.0731183
-0.0723489
-0.611292
-0.630487
-0.665722
-0.704202
-0.720352
-0.67986
-0.573028
-0.458273
-0.360092
-0.286575
-0.242904
-0.226966
-0.214801
-0.170822
-0.129187
-0.0973275
-0.0756589
-0.0624343
-0.0585189
-0.0591145
-0.254087
-0.266389
-0.291549
-0.324865
-0.352367
-0.356766
-0.334537
-0.29695
-0.257387
-0.220361
-0.195655
-0.186232
-0.176256
-0.14106
-0.108223
-0.0828144
-0.0640174
-0.0537222
-0.0509325
-0.051789
0.0327867
0.0267806
0.0098358
-0.0206796
-0.0616561
-0.101704
-0.132722
-0.151781
-0.156517
-0.149394
-0.138966
-0.128693
-0.115481
-0.095518
-0.0773041
-0.0629201
-0.051749
-0.0455591
-0.0442144
-0.0452899
0.181454
0.177794
0.165548
0.139024
0.0960189
0.0423197
-0.00872816
-0.0489086
-0.0744523
-0.0850073
-0.0816971
-0.0700712
-0.0564291
-0.0505646
-0.0470712
-0.0428563
-0.0381832
-0.0355226
-0.0352932
-0.0365904
0.224056
0.221702
0.212699
0.191696
0.155807
0.109174
0.0596939
0.0154659
-0.016986
-0.0337839
-0.0334568
-0.0216924
-0.0112892
-0.0164203
-0.023384
-0.027389
-0.0292753
-0.0305987
-0.0318576
-0.0330636
0.213978
0.21246
0.206255
0.191332
0.165229
0.129979
0.0899618
0.0520078
0.0213272
0.00342435
0.00196684
0.0106256
0.0156096
0.00468514
-0.00782996
-0.0181694
-0.0257269
-0.0314949
-0.0341033
-0.0348602
0.184293
0.183426
0.179447
0.169555
0.151805
0.126987
0.0972031
0.0674894
0.0423621
0.0273518
0.0263811
0.0324712
0.0326272
0.0195337
0.00379991
-0.0100196
-0.0213881
-0.0295259
-0.0324414
-0.0327372
0.149752
0.149361
0.146974
0.140724
0.129134
0.112354
0.0913736
0.0696857
0.0506816
0.0396372
0.0410155
0.0488692
0.0482452
0.0326113
0.0155668
0.00116509
-0.0102652
-0.0175417
-0.0198343
-0.0200218
0.11594
0.115744
0.114417
0.11064
0.103362
0.0924466
0.0783351
0.0633214
0.0498538
0.0423578
0.0458918
0.0562958
0.0587432
0.0413239
0.0245603
0.0130391
0.00502969
0.000735649
-0.000634625
-0.00098521
0.0846417
0.084592
0.0838939
0.0817477
0.0773541
0.0705113
0.0613976
0.0514096
0.0422008
0.036808
0.0387153
0.0465899
0.049443
0.0362836
0.0255207
0.0197406
0.0167642
0.0157351
0.0150864
0.0145218
0.0558874
0.0559279
0.0556526
0.054586
0.0522212
0.0482776
0.0428496
0.0366255
0.0304627
0.0257098
0.0223188
0.0180207
0.0150934
0.0132584
0.0143759
0.0174411
0.0192898
0.0204063
0.0201289
0.0194264
0.0296324
0.0297106
0.0296544
0.0293048
0.0282347
0.026396
0.0237119
0.0204769
0.0169378
0.0130913
0.00501407
-0.0129558
-0.0250048
-0.0147861
-0.000785772
0.00831168
0.0123188
0.0132228
0.0129797
0.0124147
0.0053838
0.00544856
0.00541974
0.00553663
0.00577288
0.00573367
0.00534537
0.00479729
0.00409804
0.0030747
0.000989429
-0.00560831
-0.0140161
-0.0105528
-0.00368836
-0.00240709
-0.00211879
-0.00143993
-0.000167584
0.000497234
-0.0349579
0.130676
0.32368
0.49203
0.625982
0.730763
0.817002
0.890494
0.92421
0.901
0.263844
0.383467
0.51201
0.622838
0.715939
0.792714
0.854829
0.898986
0.921093
0.933306
0.480017
0.561939
0.649748
0.727104
0.793518
0.849049
0.893235
0.925568
0.94903
0.967104
0.639063
0.697775
0.758492
0.814979
0.864001
0.905656
0.939913
0.967292
0.989929
1.00828
0.763263
0.805895
0.851427
0.894781
0.933111
0.966611
0.995319
1.01925
1.03954
1.05741
0.866809
0.899405
0.937229
0.972493
1.00489
1.03396
1.05938
1.08078
1.09857
1.11593
0.958878
0.987411
1.02119
1.05316
1.08297
1.11003
1.13369
1.15335
1.16882
1.1859
1.04718
1.07628
1.11018
1.14212
1.17164
1.19816
1.22097
1.23942
1.25277
1.2698
1.14232
1.17547
1.21204
1.24556
1.27556
1.3017
1.32362
1.34087
1.35272
1.37012
1.25722
1.295
1.33361
1.36782
1.39713
1.42185
1.4422
1.45808
1.46953
1.4876
1.40209
1.44062
1.47673
1.5074
1.53306
1.55513
1.57418
1.5897
1.60211
1.62011
1.57713
1.60875
1.63491
1.65734
1.67731
1.69602
1.71373
1.7302
1.74554
1.76361
1.76572
1.78292
1.79795
1.81417
1.83007
1.8446
1.85779
1.87172
1.88925
1.90941
1.94743
1.95696
1.9685
1.97931
1.98859
1.99817
2.00895
2.02031
2.03167
2.04702
2.15465
2.15832
2.14337
2.12856
2.12228
2.12795
2.14643
2.17674
2.20891
2.23557
2.46098
2.32611
2.24947
2.20708
2.18965
2.19362
2.22102
2.27743
2.38005
2.60441
0.780642
0.778514
0.774032
0.76541
0.753191
0.741069
0.730851
0.722971
0.717375
0.714151
0.713833
0.716606
0.721736
0.728978
0.738379
0.749928
0.762585
0.773623
0.779737
0.782793
0.705086
0.710933
0.717268
0.721765
0.72424
0.723923
0.721197
0.717403
0.713916
0.711687
0.711579
0.713812
0.717503
0.721812
0.725633
0.727526
0.726597
0.723121
0.71796
0.71134
0.696645
0.698941
0.702347
0.705347
0.707429
0.708933
0.709701
0.709402
0.708402
0.707553
0.70777
0.709236
0.711081
0.712409
0.712605
0.711726
0.710185
0.707855
0.704596
0.701677
0.691111
0.692197
0.694033
0.696415
0.698446
0.699884
0.700918
0.70169
0.70212
0.702381
0.702919
0.70377
0.704401
0.704493
0.704099
0.703264
0.701804
0.699727
0.697646
0.696265
0.685877
0.68654
0.68765
0.689361
0.69115
0.692793
0.694105
0.695144
0.696059
0.696894
0.697677
0.698279
0.698512
0.698375
0.697829
0.696791
0.695375
0.693841
0.692529
0.691751
0.680862
0.681322
0.682111
0.683415
0.684912
0.686442
0.687925
0.689249
0.690423
0.69153
0.692508
0.693135
0.693327
0.693088
0.692417
0.691448
0.690338
0.689217
0.688309
0.687793
0.675985
0.676329
0.676943
0.678018
0.679323
0.680711
0.682171
0.683647
0.685063
0.686403
0.687588
0.688349
0.688582
0.688349
0.687783
0.687031
0.6862
0.685348
0.684684
0.684307
0.671191
0.671458
0.671954
0.67287
0.674052
0.675365
0.676784
0.678307
0.679897
0.681486
0.682921
0.683874
0.684243
0.684176
0.683823
0.683295
0.682671
0.682051
0.681569
0.681282
0.666395
0.666607
0.66702
0.667827
0.66893
0.670198
0.671611
0.673186
0.674915
0.676751
0.678485
0.679714
0.680334
0.680517
0.680403
0.680102
0.67969
0.679265
0.678924
0.6787
0.66151
0.66168
0.662034
0.662769
0.663828
0.665077
0.666522
0.668186
0.67008
0.672182
0.674275
0.675877
0.676833
0.677314
0.677461
0.677398
0.677205
0.676957
0.676734
0.676556
0.656444
0.656582
0.656894
0.657585
0.658629
0.659906
0.661422
0.663219
0.665333
0.667759
0.670289
0.672353
0.673714
0.674541
0.674988
0.67518
0.675203
0.675129
0.675007
0.674863
0.651107
0.651217
0.651502
0.652174
0.653239
0.654588
0.65622
0.658204
0.660605
0.663441
0.66651
0.66913
0.670968
0.672198
0.672983
0.673455
0.673709
0.673808
0.673773
0.673657
0.645399
0.645486
0.645755
0.646433
0.647554
0.649018
0.65082
0.653061
0.655828
0.659181
0.662909
0.666198
0.668602
0.6703
0.671467
0.672266
0.672776
0.673042
0.673086
0.67299
0.63921
0.639276
0.639538
0.640245
0.64146
0.643087
0.645123
0.647699
0.650934
0.654928
0.65946
0.663552
0.666629
0.668877
0.670488
0.671654
0.672449
0.672895
0.673014
0.672935
0.632406
0.632452
0.632716
0.633474
0.634824
0.636669
0.639013
0.642017
0.645842
0.650628
0.656136
0.661193
0.665071
0.667969
0.670102
0.671682
0.672804
0.673447
0.673639
0.673573
0.624835
0.624859
0.625126
0.625957
0.627485
0.629615
0.632353
0.6359
0.640461
0.646221
0.652913
0.659126
0.663951
0.667616
0.670368
0.672442
0.673937
0.674792
0.675057
0.675001
0.61627
0.616284
0.616563
0.617495
0.619258
0.621733
0.624979
0.629213
0.634689
0.641644
0.649768
0.657359
0.663308
0.667874
0.671356
0.674026
0.675944
0.67703
0.677369
0.677319
0.606432
0.606416
0.606748
0.607823
0.609875
0.61281
0.616697
0.621793
0.628409
0.636831
0.646684
0.655913
0.663186
0.668815
0.673153
0.676514
0.678926
0.680265
0.680676
0.680629
0.595006
0.594966
0.595345
0.596614
0.599036
0.602563
0.607265
0.61345
0.621493
0.631717
0.64365
0.654814
0.663633
0.670505
0.675849
0.680004
0.682982
0.68459
0.685069
0.685019
0.581499
0.581431
0.581891
0.583413
0.586322
0.590619
0.596377
0.603959
0.613799
0.626242
0.640667
0.654101
0.664705
0.673003
0.67952
0.684591
0.688191
0.690074
0.690611
0.690553
0.565246
0.56515
0.565737
0.567614
0.571176
0.576503
0.583659
0.593064
0.605191
0.620369
0.637758
0.653819
0.666461
0.676379
0.684217
0.690322
0.694596
0.696743
0.697319
0.697246
0.545295
0.545171
0.545963
0.548359
0.552841
0.559598
0.568665
0.580498
0.595563
0.614106
0.634989
0.654043
0.668967
0.680687
0.689968
0.697223
0.702184
0.704556
0.70514
0.705044
0.5202
0.520061
0.521191
0.524392
0.530268
0.539121
0.550898
0.566034
0.584891
0.607544
0.632483
0.654877
0.672283
0.685956
0.696806
0.705264
0.710858
0.713374
0.713924
0.713798
0.487614
0.487499
0.489248
0.493847
0.502042
0.514167
0.52992
0.54959
0.573298
0.600884
0.630429
0.656448
0.676481
0.692199
0.704676
0.714328
0.720413
0.722942
0.723409
0.723249
0.443323
0.443377
0.446491
0.454005
0.466505
0.483967
0.505616
0.531397
0.561144
0.594478
0.629087
0.658907
0.681626
0.699408
0.713496
0.724208
0.730511
0.732874
0.73321
0.733017
0.379431
0.380669
0.388287
0.402312
0.422694
0.448652
0.478606
0.512171
0.549061
0.588792
0.628735
0.662393
0.68774
0.707501
0.72302
0.734454
0.74066
0.742616
0.742779
0.742568
0.303739
0.305558
0.320145
0.344243
0.375656
0.411639
0.450635
0.492471
0.536976
0.583694
0.629726
0.668008
0.696624
0.718781
0.735883
0.747933
0.753773
0.755382
0.755495
0.755366
0.225697
0.232002
0.253541
0.287986
0.329878
0.375597
0.42359
0.473735
0.525919
0.579705
0.631945
0.674929
0.706781
0.731296
0.750144
0.762206
0.767189
0.768283
0.768342
0.768286
0.16183
0.170492
0.196626
0.238155
0.288258
0.342265
0.398364
0.456282
0.515787
0.576365
0.634525
0.681897
0.71672
0.743202
0.76287
0.774797
0.779401
0.780397
0.780501
0.780505
0.109895
0.119157
0.148871
0.195677
0.251973
0.31266
0.375612
0.440391
0.50658
0.573519
0.637292
0.688816
0.726392
0.754682
0.775301
0.78735
0.791709
0.79262
0.792778
0.792831
0.0664778
0.0760207
0.108197
0.159024
0.220403
0.286633
0.355401
0.426187
0.498398
0.571219
0.6403
0.695817
0.736072
0.766195
0.787838
0.800045
0.804355
0.805448
0.805636
0.805729
0.029202
0.0388471
0.0728618
0.126904
0.192495
0.263458
0.337302
0.413415
0.491094
0.569382
0.643509
0.702888
0.745787
0.777708
0.800396
0.813161
0.817754
0.818889
0.819071
0.819178
-0.00362377
0.00604248
0.0414609
0.0982151
0.167338
0.242388
0.320729
0.401654
0.48437
0.567789
0.646739
0.709869
0.755367
0.789111
0.813005
0.826401
0.831265
0.8325
0.832679
0.832763
-0.0333025
-0.0236153
0.012949
0.0720441
0.144195
0.222831
0.305186
0.39049
0.477871
0.566142
0.649746
0.716554
0.764612
0.800161
0.825146
0.839233
0.84446
0.845756
0.845916
0.845982
-0.0607412
-0.051026
-0.0134793
0.0476767
0.122506
0.204323
0.290275
0.379571
0.471299
0.564199
0.652336
0.722756
0.773324
0.810597
0.836692
0.851364
0.856981
0.858335
0.858463
0.858499
-0.0865235
-0.0767577
-0.0383073
0.0245906
0.101839
0.186501
0.275699
0.368654
0.464443
0.561762
0.654336
0.728345
0.781384
0.820321
0.847417
0.862615
0.868505
0.869895
0.869987
0.869986
-0.111146
-0.101265
-0.0619258
0.00245809
0.081902
0.169109
0.261247
0.357554
0.457131
0.558673
0.65562
0.733246
0.788756
0.829296
0.857304
0.872855
0.878887
0.880299
0.88037
0.880338
-0.134904
-0.124822
-0.0847625
-0.018893
0.062496
0.151975
0.246772
0.346144
0.449245
0.55483
0.656105
0.73741
0.795442
0.837532
0.866281
0.882062
0.888127
0.889496
0.889554
0.889493
-0.157914
-0.147644
-0.106908
-0.0396167
0.043487
0.135008
0.232189
0.334349
0.440715
0.550142
0.655703
0.740808
0.80148
0.845143
0.874508
0.890345
0.896299
0.897612
0.897622
0.897547
-0.180375
-0.16984
-0.128365
-0.0598254
0.0248093
0.11815
0.217462
0.322142
0.431507
0.54456
0.654344
0.743409
0.806937
0.852276
0.882151
0.897847
0.903565
0.904748
0.904713
0.904616
-0.202245
-0.191456
-0.149298
-0.0795778
0.00644154
0.101393
0.202602
0.309532
0.421618
0.538051
0.651968
0.745161
0.811866
0.859092
0.889431
0.904758
0.910046
0.911024
0.910931
0.910815
-0.223595
-0.21253
-0.169649
-0.0988738
-0.0116141
0.0847526
0.187631
0.296559
0.411082
0.530616
0.648515
0.745996
0.816274
0.865752
0.896626
0.911319
0.915859
0.916503
0.916343
0.916223
-0.244289
-0.233011
-0.189412
-0.117678
-0.0293261
0.0682857
0.172602
0.283278
0.399953
0.522291
0.643947
0.745826
0.82011
0.872367
0.904084
0.91797
0.921325
0.921327
0.921046
0.920952
-0.264463
-0.252866
-0.208591
-0.135984
-0.0466733
0.0520212
0.157596
0.26976
0.388306
0.513139
0.638251
0.744532
0.823242
0.878933
0.912132
0.925397
0.92713
0.925827
0.925168
0.92514
-0.283965
-0.272074
-0.227166
-0.153759
-0.0635848
0.0360366
0.142685
0.256114
0.376238
0.503211
0.631451
0.741992
0.825469
0.885278
0.920871
0.934396
0.934634
0.931228
0.929119
0.928538
-0.302862
-0.29069
-0.24509
-0.17096
-0.0800321
0.020395
0.127947
0.242414
0.363855
0.492632
0.623594
0.738077
0.82653
0.89103
0.929905
0.945247
0.945561
0.940304
0.934078
0.926327
-0.321075
-0.308671
-0.262457
-0.187742
-0.0962205
0.00483296
0.113061
0.228282
0.350734
0.480937
0.614196
0.732291
0.82601
0.895974
0.938775
0.957567
0.960581
0.954668
0.943472
0.939061
-0.338561
-0.325941
-0.279256
-0.204081
-0.112163
-0.0106465
0.0980356
0.213692
0.33682
0.467992
0.603033
0.724208
0.823069
0.899312
0.945577
0.967471
0.972537
0.96908
0.93081
0.879262
-0.355044
-0.341719
-0.295337
-0.219908
-0.127963
-0.0262095
0.0828089
0.198753
0.322159
0.453838
0.589999
0.713518