/*--------------------------------*- C++ -*----------------------------------*\
  =========                 |
  \\      /  F ield         | OpenFOAM: The Open Source CFD Toolbox
   \\    /   O peration     | Website:  https://openfoam.org
    \\  /    A nd           | Version:  9
     \\/     M anipulation  |
\*---------------------------------------------------------------------------*/
FoamFile
{
    format      ascii;
    class       surfaceScalarField;
    location    "20";
    object      phi;
}
// * * * * * * * * * * * * * * * * * * * * * * * * * * * * * * * * * * * * * //

dimensions      [0 3 -1 0 0 0 0];

internalField   nonuniform List<scalar> 
17370
(
-0.0916059
0.0960115
0.284605
-0.0775977
0.059423
0.36495
-0.043042
0.031617
0.427593
-0.0223067
0.0162479
0.505311
-0.0116476
0.00876876
0.602281
-0.00655651
0.00507487
0.720539
-0.00384531
0.00297536
0.863776
-0.00221734
0.00165331
1.03601
-0.0011369
0.000727737
1.24291
-0.000326199
-5.6006e-05
1.49157
0.000432579
-0.000840787
1.4916
0.00124749
-0.0017593
1.2432
0.00231836
-0.00306987
1.03639
0.00393298
-0.00515406
0.864128
0.00662794
-0.00883182
0.721261
0.0117021
-0.0162907
0.603803
0.0223375
-0.0316346
0.508736
0.0430461
-0.059419
0.432541
0.0775951
-0.0960088
0.365189
0.0916148
0.197396
-0.127097
0.0880343
0.0390629
-0.364362
0.354037
-0.0714632
0.081788
-0.44665
0.454259
-0.0791628
0.0715537
-0.521016
0.529121
-0.0636949
0.0555899
-0.613001
0.620767
-0.0482054
0.0404395
-0.727162
0.733694
-0.0338271
0.0272953
-0.86756
0.872409
-0.0220798
0.0172307
-1.03854
1.04185
-0.0135496
0.0102401
-1.24469
1.24706
-0.00771726
0.00534626
-1.49282
1.49478
-0.00342244
0.00146161
-1.49268
1.49445
0.000300498
-0.00207032
-1.24409
1.24599
0.00400712
-0.00590533
-1.03759
1.04008
0.00824314
-0.0107336
-0.866176
0.869823
0.0140069
-0.0176535
-0.724601
0.72978
0.0224641
-0.0276426
-0.609089
0.615669
0.0341349
-0.0407146
-0.515141
0.522494
0.0484475
-0.0558005
-0.43988
0.447693
0.0638601
-0.0716732
-0.37473
0.377368
0.0792154
-0.0818525
-0.256935
0.224503
0.0715136
-0.0390813
-0.0688287
0.0592325
0.00959615
-0.0520194
0.0588228
-0.374844
0.368041
-0.0579574
0.0541038
-0.453937
0.457791
-0.0486108
0.0440487
-0.527597
0.532159
-0.0394978
0.0356001
-0.620781
0.624679
-0.0313995
0.0274299
-0.734655
0.738624
-0.023108
0.0192596
-0.873936
0.877784
-0.0152743
0.0118842
-1.04331
1.0467
-0.00845034
0.00549238
-1.24857
1.25152
-0.00236168
-0.000563177
-1.49682
1.49975
0.00346934
-0.00656539
-1.49732
1.50041
0.00947519
-0.0128486
-1.25003
1.25341
0.016179
-0.0200947
-1.04567
1.04958
0.0238778
-0.0281269
-0.877194
0.881443
0.0320337
-0.0361727
-0.739035
0.743174
0.0400172
-0.0445136
-0.626014
0.63051
0.0490303
-0.0544797
-0.535052
0.540501
0.0582858
-0.0590982
-0.458135
0.458947
0.0522206
-0.0319363
-0.336874
0.31659
0.00963182
-0.0687383
0.0591064
-0.053461
0.0493724
0.00408859
-0.0330945
0.0434694
-0.358631
0.348256
-0.0471162
0.0465117
-0.459609
0.460213
-0.0435613
0.0403203
-0.536138
0.539379
-0.0366155
0.0332516
-0.628358
0.631722
-0.0296296
0.0264267
-0.741958
0.745161
-0.0230298
0.0199096
-0.881216
0.884336
-0.0164265
0.0131784
-1.05007
1.05332
-0.00959883
0.00630712
-1.25472
1.25802
-0.00264506
-0.000843118
-1.50304
1.50653
0.00431543
-0.00792572
-1.50386
1.50747
0.0111458
-0.014632
-1.25692
1.2604
0.0177856
-0.0211609
-1.05323
1.05661
0.0241842
-0.0274805
-0.885015
0.888311
0.0305961
-0.0341244
-0.746867
0.750395
0.0374084
-0.0410324
-0.634683
0.638307
0.0442058
-0.047081
-0.544715
0.547591
0.0476092
-0.0438595
-0.457141
0.453392
0.033362
-0.016213
-0.297397
0.280248
0.00412902
-0.0532986
0.0491696
-0.0462318
0.043716
0.00251581
-0.0227476
0.0329694
-0.337739
0.327517
-0.0386246
0.0395662
-0.459945
0.459004
-0.0383523
0.0360969
-0.541976
0.544232
-0.0335219
0.0310119
-0.634657
0.637167
-0.0280527
0.0252243
-0.748232
0.75106
-0.0220275
0.0190802
-0.887374
0.890321
-0.0158228
0.0128053
-1.05644
1.05945
-0.00940543
0.00617763
-1.2613
1.26453
-0.00246816
-0.00114696
-1.51011
1.51372
0.00473697
-0.00837596
-1.51112
1.51476
0.0115114
-0.0147848
-1.2638
1.26707
0.0176753
-0.0207891
-1.05983
1.06294
0.0236093
-0.026673
-0.891544
0.894607
0.0293815
-0.0322155
-0.753629
0.756463
0.0346154
-0.0370792
-0.641272
0.643736
0.0392446
-0.040346
-0.549439
0.55054
0.0392916
-0.0334765
-0.448382
0.442567
0.023082
-0.0101177
-0.26528
0.252315
0.00256442
-0.0459851
0.0434207
-0.0416464
0.0399122
0.00173426
-0.0164242
0.0254568
-0.317828
0.308796
-0.0318458
0.033846
-0.457501
0.4555
-0.0333318
0.0315843
-0.546224
0.547972
-0.0293444
0.0272535
-0.639391
0.641482
-0.024929
0.0227107
-0.753562
0.75578
-0.0201164
0.0175901
-0.893093
0.895619
-0.0146571
0.0118557
-1.06237
1.06517
-0.00864361
0.0055632
-1.26768
1.27076
-0.00198098
-0.00152996
-1.51731
1.52083
0.00500848
-0.00849406
-1.51834
1.52183
0.0114509
-0.0145033
-1.27023
1.27328
0.0171439
-0.0198903
-1.0659
1.06865
0.0222418
-0.0246424
-0.897361
0.899762
0.0266928
-0.0288563
-0.758885
0.761048
0.0308051
-0.0329041
-0.645969
0.648068
0.0345223
-0.0348818
-0.551216
0.551576
0.0327092
-0.0260904
-0.436247
0.429628
0.0168324
-0.00708949
-0.241092
0.231349
0.0017933
-0.0412972
0.0395039
-0.0384386
0.0371775
0.00126114
-0.0121409
0.0197231
-0.300475
0.292893
-0.0261628
0.0289469
-0.453068
0.450283
-0.0291468
0.0280664
-0.549419
0.5505
-0.0261637
0.0243248
-0.643469
0.645308
-0.0222315
0.0202341
-0.757852
0.75985
-0.0179355
0.0157008
-0.89794
0.900175
-0.0130789
0.0105098
-1.06786
1.07042
-0.00751375
0.0046202
-1.27376
1.27665
-0.00127855
-0.00195486
-1.5242
1.52744
0.00514977
-0.00837102
-1.52519
1.52841
0.0111014
-0.0138802
-1.27621
1.27899
0.0162325
-0.0186144
-1.07118
1.07356
0.0206302
-0.0226983
-0.901932
0.904
0.0244909
-0.0263687
-0.763071
0.764948
0.0280309
-0.0297603
-0.650007
0.651736
0.0306584
-0.0302517
-0.551566
0.551159
0.0272339
-0.0204936
-0.422875
0.416135
0.0126326
-0.00523529
-0.222864
0.215467
0.00133245
-0.0379653
0.0366328
-0.0361076
0.0352105
0.000897124
-0.00882163
0.0148696
-0.286077
0.280029
-0.0207657
0.0238668
-0.447273
0.444172
-0.0246358
0.0240942
-0.551253
0.551794
-0.0226056
0.0210854
-0.646972
0.648492
-0.0192883
0.0175128
-0.761748
0.763524
-0.0154316
0.0134186
-0.902329
0.904342
-0.011091
0.00883275
-1.07286
1.07511
-0.00618676
0.00358681
-1.27941
1.28201
-0.000518084
-0.00250168
-1.53056
1.53358
0.0054679
-0.00837905
-1.53149
1.5344
0.010772
-0.013147
-1.28159
1.28396
0.015139
-0.0171583
-1.07579
1.07781
0.0188888
-0.0206671
-0.905947
0.907725
0.0221808
-0.0237029
-0.766653
0.768175
0.0249924
-0.0262423
-0.653223
0.654473
0.0265517
-0.0254955
-0.550392
0.549336
0.0220805
-0.0158017
-0.409558
0.403279
0.0094149
-0.00385555
-0.209041
0.203481
0.000984327
-0.0354839
0.0344996
-0.0344588
0.0338309
0.000627911
-0.00623764
0.0108653
-0.274714
0.270086
-0.0158923
0.0189091
-0.441082
0.438066
-0.0199731
0.0196146
-0.552225
0.552583
-0.0183792
0.0170099
-0.649933
0.651303
-0.0154519
0.0139933
-0.765165
0.766623
-0.0123045
0.0106467
-0.906182
0.90784
-0.00867101
0.00672075
-1.0772
1.07915
-0.0044168
0.00215161
-1.28443
1.28669
0.000530903
-0.00316737
-1.53643
1.53907
0.00573409
-0.00821336
-1.5371
1.53957
0.0102168
-0.0121749
-1.28611
1.28807
0.0137721
-0.0153487
-1.0796
1.08118
0.0166376
-0.0179306
-0.909303
0.910596
0.0190514
-0.0202724
-0.769543
0.770764
0.0213559
-0.0222805
-0.655534
0.656459
0.0223376
-0.0208988
-0.548055
0.546616
0.0174842
-0.0119881
-0.397377
0.391881
0.00695415
-0.0028319
-0.19868
0.194558
0.000735523
-0.0336518
0.0329163
-0.0333226
0.0329448
0.000377784
-0.00385893
0.00712279
-0.266134
0.26287
-0.0111723
0.0139863
-0.435147
0.432333
-0.0153197
0.0152734
-0.552834
0.55288
-0.0144444
0.0134144
-0.65254
0.65357
-0.0122315
0.0110985
-0.767898
0.769031
-0.00976453
0.00840157
-0.909322
0.910685
-0.00672552
0.00501085
-1.08097
1.08269
-0.00291986
0.000835878
-1.28886
1.29094
0.0016079
-0.00396571
-1.54154
1.5439
0.00624097
-0.00844025
-1.5419
1.5441
0.0101836
-0.0118241
-1.28988
1.29152
0.0130991
-0.01427
-1.08253
1.0837
0.0151806
-0.0160533
-0.911615
0.912487
0.0167804
-0.0175351
-0.771771
0.772526
0.0181911
-0.0186099
-0.657197
0.657616
0.018255
-0.0164212
-0.545017
0.543183
0.0130958
-0.00847264
-0.386806
0.382183
0.00472511
-0.00190422
-0.19109
0.188269
0.000510656
-0.0322903
0.0317796
-0.0326988
0.0325755
0.00012337
-0.00173705
0.00368717
-0.260287
0.258337
-0.00660634
0.00909062
-0.429644
0.427159
-0.0107685
0.0112836
-0.552643
0.552128
-0.0111173
0.010521
-0.654371
0.654967
-0.00963304
0.00867491
-0.770102
0.77106
-0.00745875
0.00618602
-0.912002
0.913275
-0.00462842
0.00304691
-1.08431
1.08589
-0.00114932
-0.000726614
-1.29291
1.29478
0.00291714
-0.00500741
-1.54612
1.54821
0.00699265
-0.00886015
-1.54615
1.54802
0.0103057
-0.0116489
-1.29301
1.29435
0.0126807
-0.0136247
-1.08476
1.08571
0.014326
-0.0149295
-0.913267
0.91387
0.015341
-0.0156411
-0.773034
0.773334
0.0157435
-0.0153529
-0.657608
0.657217
0.0143218
-0.0120241
-0.541077
0.538779
0.00893197
-0.0053388
-0.378058
0.374464
0.00280805
-0.00108982
-0.186054
0.184335
0.000288661
-0.0313892
0.0311006
-0.0325434
0.0325784
-3.50399e-05
-0.000477283
0.00148258
-0.256916
0.255911
-0.00327309
0.00504603
-0.424988
0.423215
-0.00648303
0.00709441
-0.551492
0.550881
-0.00715499
0.00679386
-0.655431
0.655792
-0.00616879
0.00543505
-0.771925
0.772659
-0.00445917
0.00339837
-0.914465
0.915526
-0.00204631
0.000676445
-1.08737
1.08874
0.000974412
-0.00259703
-1.29652
1.29815
0.00449531
-0.00631107
-1.55015
1.55197
0.00798067
-0.00944802
-1.54969
1.55116
0.0104948
-0.0113969
-1.2955
1.2964
0.0120034
-0.0124461
-1.08643
1.08687
0.0127144
-0.0128892
-0.914247
0.914422
0.0129809
-0.0130037
-0.773462
0.773485
0.0128415
-0.0121422
-0.656604
0.655905
0.0109124
-0.00872108
-0.536465
0.534274
0.00620189
-0.00357028
-0.371393
0.368761
0.00183101
-0.000687543
-0.18298
0.181837
0.000170525
-0.030892
0.0307214
-0.0326561
0.0327562
-0.000100082
1.4269e-05
0.000547028
-0.255181
0.25462
-0.0016467
0.00276243
-0.421813
0.420697
-0.00364482
0.00394958
-0.550438
0.550133
-0.00382078
0.00341991
-0.656145
0.656546
-0.00273779
0.00204783
-0.773406
0.774096
-0.00119677
0.000283913
-0.9165
0.917413
0.000856936
-0.00201738
-1.08995
1.09111
0.00341017
-0.00478121
-1.29958
1.30095
0.00637767
-0.00787997
-1.5536
1.5551
0.00920867
-0.0102835
-1.55244
1.55352
0.0109817
-0.0115389
-1.29708
1.29764
0.011898
-0.0121287
-1.08717
1.0874
0.0121943
-0.0121201
-0.914434
0.91436
0.0119297
-0.011622
-0.773316
0.773008
0.0111983
-0.0104352
-0.655164
0.654401
0.00929421
-0.00742327
-0.532277
0.530406
0.00534485
-0.00317198
-0.366444
0.364271
0.00168266
-0.000650303
-0.180802
0.179769
0.000162126
-0.0305753
0.0304131
-0.0328627
0.0329794
-0.000116734
0.000233758
0.000173091
-0.254153
0.253747
-0.00108709
0.00203536
-0.41975
0.418801
-0.00273349
0.00285776
-0.549982
0.549858
-0.00250659
0.00188502
-0.657077
0.657698
-0.00115469
0.000454241
-0.774871
0.775571
0.000424102
-0.00136702
-0.918306
0.919249
0.00256831
-0.00380515
-1.09218
1.09341
0.00530615
-0.00677143
-1.30226
1.30372
0.00841852
-0.00988604
-1.55651
1.55798
0.0111464
-0.0121386
-1.55453
1.55552
0.0127265
-0.0130824
-1.29807
1.29843
0.0131578
-0.0130741
-1.08753
1.08745
0.0129145
-0.0127052
-0.914205
0.913996
0.0124767
-0.0121185
-0.772539
0.772181
0.0117097
-0.010952
-0.653642
0.652884
0.00978261
-0.00783641
-0.528621
0.526675
0.00568137
-0.00343358
-0.362133
0.359885
0.00187647
-0.000763678
-0.178725
0.177612
0.000205322
-0.0302491
0.0300438
-0.0331098
0.0332562
-0.000146333
0.000516085
-0.000274354
-0.253409
0.253167
-0.000568769
0.00168884
-0.417817
0.416697
-0.00280232
0.00326946
-0.549651
0.549184
-0.00319987
0.00278623
-0.658266
0.65868
-0.00205558
0.00120914
-0.776489
0.777335
-7.7209e-05
-0.00120738
-0.920288
0.921572
0.00284135
-0.00451179
-1.09472
1.09639
0.00651085
-0.00843678
-1.3053
1.30723
0.0105806
-0.0124854
-1.55958
1.56148
0.0141173
-0.0154415
-1.55668
1.55801
0.0162541
-0.0168215
-1.29886
1.29943
0.0170795
-0.0170944
-1.08724
1.08725
0.0169259
-0.0165617
-0.913624
0.913259
0.0160661
-0.015484
-0.771739
0.771157
0.0147813
-0.0134469
-0.65199
0.650656
0.0115603
-0.00884047
-0.524498
0.521778
0.00620714
-0.00371275
-0.35756
0.355065
0.0020652
-0.000881531
-0.176491
0.175307
0.000254475
-0.0298378
0.0295834
-0.0334288
0.0336285
-0.000199661
0.00105961
-0.00117731
-0.253119
0.253237
0.000630329
0.000492447
-0.415599
0.414476
-0.00205906
0.0032148
-0.548372
0.547216
-0.00368784
0.00361215
-0.658824
0.6589
-0.00310374
0.00231437
-0.778398
0.779187
-0.000943034
-0.000737072
-0.922997
0.924677
0.00296537
-0.00523812
-1.09822
1.1005
0.00791284
-0.010454
-1.30937
1.31191
0.0132705
-0.0157846
-1.56365
1.56616
0.0179682
-0.0197801
-1.55961
1.56142
0.0209702
-0.0218554
-1.30023
1.30112
0.022376
-0.0226571
-1.08735
1.08763
0.0225857
-0.0221019
-0.912702
0.912219
0.0213974
-0.0202342
-0.770275
0.769112
0.0184941
-0.0158882
-0.648758
0.646152
0.0128755
-0.00929882
-0.518703
0.515127
0.0063436
-0.00380701
-0.352609
0.350072
0.00217677
-0.000969669
-0.17416
0.172953
0.000293232
-0.0293378
0.0290445
-0.0338798
0.034164
-0.000284267
0.00170788
-0.00230615
-0.253553
0.254151
0.0024174
-0.00175231
-0.413628
0.412963
0.000298584
0.00115885
-0.545847
0.54439
-0.00230488
0.00255623
-0.658789
0.658538
-0.00218129
0.00133904
-0.780204
0.781046
0.000282046
-0.00234736
-0.926433
0.928499
0.00502042
-0.00770276
-1.10286
1.10554
0.0108211
-0.0137548
-1.31459
1.31753
0.0169901
-0.0198438
-1.56884
1.5717
0.0222806
-0.0242597
-1.56338
1.56536
0.0255164
-0.0264091
-1.30214
1.30303
0.0268379
-0.0268882
-1.08776
1.08781
0.0265463
-0.0258316
-0.911459
0.910745
0.0246878
-0.0226416
-0.767448
0.765402
0.0199684
-0.0164273
-0.643076
0.639535
0.0128513
-0.00909235
-0.511518
0.507759
0.00625315
-0.00389161
-0.347731
0.345369
0.00231679
-0.00106859
-0.171795
0.170547
0.000330805
-0.0287643
0.0284335
-0.034519
0.0349173
-0.000398231
0.0024871
-0.00361103
-0.255018
0.256142
0.00447922
-0.00468345
-0.412836
0.41304
0.00406313
-0.00310714
-0.543254
0.542298
0.00214759
-0.00173893
-0.658044
0.657636
0.00212854
-0.0032379
-0.782095
0.783205
0.00513231
-0.00730363
-0.930487
0.932658
0.0100531
-0.0128024
-1.10814
1.11088
0.0159845
-0.018943
-1.32041
1.32337
0.0221299
-0.024839
-1.57446
1.57717
0.0270089
-0.0286028
-1.56719
1.56879
0.029435
-0.0298061
-1.30379
1.30416
0.0297122
-0.029236
-1.08751
1.08703
0.0284736
-0.0271268
-0.909627
0.90828
0.025257
-0.0225561
-0.762864
0.760163
0.0195524
-0.0158614
-0.635907
0.632216
0.0124405
-0.00902903
-0.504327
0.500915
0.00647251
-0.00424058
-0.343234
0.341002
0.00262018
-0.00123607
-0.169323
0.167939
0.000386141
-0.028117
0.0277309
-0.0353946
0.0359345
-0.000539927
0.00339393
-0.00507023
-0.257591
0.259268
0.00672211
-0.00777503
-0.413697
0.41475
0.00824039
-0.00826328
-0.542095
0.542118
0.0082318
-0.00851223
-0.657621
0.657902
0.00939492
-0.0107452
-0.784268
0.785618
0.0127285
-0.0148987
-0.934593
0.936763
0.017594
-0.020253
-1.11343
1.11609
0.0232779
-0.0260115
-1.32611
1.32884
0.0288126
-0.031012
-1.57957
1.58177
0.0325589
-0.0334062
-1.57001
1.57085
0.0335109
-0.0330121
-1.30418
1.30368
0.0321626
-0.0308804
-1.08605
1.08477
0.0293379
-0.0271993
-0.906308
0.904169
0.024908
-0.0220313
-0.757207
0.754331
0.0191058
-0.0157294
-0.628744
0.625368
0.012703
-0.00965988
-0.497951
0.494908
0.00724336
-0.00492748
-0.338947
0.336631
0.00310585
-0.00147779
-0.166545
0.164917
0.000461252
-0.0273599
0.0268987
-0.0365541
0.0372599
-0.000705761
0.00443917
-0.00670268
-0.26126
0.263524
0.0091038
-0.010974
-0.41628
0.41815
0.0124387
-0.0134219
-0.542991
0.543974
0.0144144
-0.0155522
-0.658739
0.659877
0.0172089
-0.0190819
-0.786994
0.788867
0.0214722
-0.0238889
-0.938784
0.941201
0.0267273
-0.0293986
-1.11854
1.12121
0.0322948
-0.0347638
-1.3313
1.33377
0.0370797
-0.0386296
-1.58357
1.58512
0.039371
-0.0392677
-1.57122
1.57112
0.0384991
-0.0371015
-1.30275
1.30136
0.0354648
-0.0333077
-1.08289
1.08073
0.0310525
-0.0283897
-0.901573
0.89891
0.0258128
-0.0228578
-0.75124
0.748285
0.0200535
-0.016934
-0.622218
0.619099
0.0141259
-0.0111616
-0.492253
0.489288
0.00860633
-0.00597428
-0.334425
0.331793
0.00380734
-0.00181663
-0.163245
0.161254
0.000566452
-0.0264518
0.0258853
-0.0380583
0.0390077
-0.000949384
0.00588168
-0.00888254
-0.266128
0.269129
0.0121314
-0.0147861
-0.420532
0.423187
0.0171344
-0.0189708
-0.545847
0.547683
0.020928
-0.0229732
-0.661624
0.663669
0.025544
-0.0281433
-0.790827
0.793426
0.0311948
-0.0340802
-0.943529
0.946414
0.0372705
-0.0401059
-1.12372
1.12656
0.0429992
-0.0452823
-1.33598
1.33827
0.0471648
-0.0480781
-1.58625
1.58716
0.0480068
-0.046935
-1.57047
1.5694
0.0452862
-0.0429628
-1.29947
1.29714
0.0404982
-0.0375434
-1.07808
1.07512
0.0347139
-0.031563
-0.895803
0.892652
0.02868
-0.0255453
-0.745023
0.741889
0.0226874
-0.0195515
-0.616055
0.612919
0.0166613
-0.0134466
-0.486617
0.483402
0.0105153
-0.00736305
-0.329231
0.326078
0.00470335
-0.00224178
-0.159207
0.156746
0.000697245
-0.0253412
0.024644
-0.0400388
0.0413309
-0.00129212
0.00788218
-0.0118559
-0.272469
0.276442
0.0161313
-0.0196342
-0.42645
0.429953
0.0228411
-0.0254874
-0.550572
0.553218
0.0284148
-0.0313939
-0.666358
0.669337
0.0349858
-0.0384579
-0.796126
0.799598
0.042356
-0.0458873
-0.949271
0.952802
0.0496233
-0.0527864
-1.1293
1.13247
0.05582
-0.0580062
-1.34032
1.3425
0.0595104
-0.0598105
-1.58765
1.58795
0.058937
-0.056918
-1.56779
1.56577
0.0543865
-0.051109
-1.2943
1.29103
0.0478222
-0.0440633
-1.07167
1.06791
0.0406017
-0.0368678
-0.888982
0.885248
0.0335566
-0.030057
-0.738286
0.734787
0.026927
-0.0234988
-0.609664
0.606236
0.0202664
-0.0165377
-0.480402
0.476673
0.0130036
-0.00913167
-0.32298
0.319108
0.00583394
-0.00277435
-0.154232
0.151173
0.000859319
-0.0239858
0.0231264
-0.0426957
0.0444917
-0.00179599
0.0107567
-0.0160396
-0.280742
0.286025
0.0216
-0.026081
-0.434322
0.438803
0.0302438
-0.0337906
-0.557225
0.560772
0.0378225
-0.0418801
-0.673009
0.677066
0.0466528
-0.0511321
-0.803159
0.807638
0.0560147
-0.060311
-0.956319
0.960616
0.0647052
-0.0682676
-1.13554
1.1391
0.071479
-0.0735657
-1.34444
1.34653
0.0746547
-0.0742849
-1.58779
1.58742
0.072541
-0.0694984
-1.56318
1.56014
0.0660226
-0.0617305
-1.2872
1.28291
0.0575695
-0.0529219
-1.06362
1.05897
0.0487195
-0.0442579
-0.880889
0.876427
0.0403611
-0.0362975
-0.730628
0.726564
0.0326924
-0.0287362
-0.602474
0.598518
0.0249456
-0.0204851
-0.473059
0.468599
0.0161408
-0.0112912
-0.315326
0.310476
0.00716464
-0.00336927
-0.148105
0.14431
0.00102935
-0.0223307
0.0213014
-0.0463456
0.0489622
-0.00261666
0.0151868
-0.0222949
-0.29166
0.298768
0.0295244
-0.0352154
-0.444657
0.450348
0.040535
-0.0451817
-0.566097
0.570744
0.050589
-0.0559442
-0.681839
0.687194
0.0620807
-0.0676748
-0.812176
0.81777
0.0736054
-0.0786704
-0.96487
0.969935
0.0836714
-0.0875456
-1.14249
1.14637
0.0908078
-0.0926598
-1.34828
1.35013
0.0931653
-0.0919586
-1.58649
1.58529
0.0891844
-0.0849644
-1.55643
1.55221
0.0804227
-0.0750009
-1.27801
1.27259
0.0698618
-0.0642019
-1.05371
1.04805
0.0591333
-0.0537901
-0.871227
0.865884
0.0491523
-0.0443411
-0.721647
0.716835
0.0400837
-0.0353954
-0.594008
0.58932
0.0308426
-0.0253968
-0.464138
0.458692
0.0200162
-0.0139579
-0.3058
0.299741
0.00879287
-0.00409605
-0.140564
0.135867
0.00123648
-0.0203427
0.0191062
-0.0515698
0.0556349
-0.00406511
0.0224575
-0.0322157
-0.306372
0.31613
0.0417191
-0.0490338
-0.458317
0.465632
0.0558197
-0.0618877
-0.577735
0.583803
0.069052
-0.0759095
-0.693247
0.700105
0.0834687
-0.0901217
-0.823362
0.830015
0.0969474
-0.102574
-0.97486
0.980487
0.107894
-0.111781
-1.14992
1.1538
0.114741
-0.116031
-1.35145
1.35274
0.115599
-0.11325
-1.58334
1.58099
0.109184
-0.103566
-1.5472
1.54158
0.0977961
-0.0910965
-1.26648
1.25978
0.0848571
-0.0780586
-1.04171
1.03491
0.0720109
-0.0656575
-0.859694
0.85334
0.0601533
-0.0544479
-0.710978
0.705273
0.0493979
-0.0438006
-0.583818
0.578221
0.0382969
-0.0315991
-0.453107
0.446409
0.0249018
-0.0173185
-0.293917
0.286334
0.0108378
-0.00498491
-0.13131
0.125457
0.00147721
-0.0179693
0.0164921
-0.0594842
0.0666805
-0.00719629
0.0359092
-0.0498442
-0.327077
0.341012
0.062596
-0.0718303
-0.476524
0.485759
0.0802331
-0.0879341
-0.592891
0.600592
0.0969296
-0.105132
-0.707426
0.715629
0.113752
-0.121026
-0.836468
0.843741
0.128185
-0.133807
-0.985715
0.991337
0.138805
-0.142102
-1.15706
1.16036
0.144131
-0.144293
-1.35319
1.35335
0.142389
-0.138456
-1.57764
1.57371
0.132756
-0.125482
-1.53501
1.52773
0.118305
-0.110188
-1.25229
1.24417
0.102741
-0.0947132
-1.02735
1.01933
0.0876159
-0.0801927
-0.846051
0.838628
0.073772
-0.0671128
-0.698326
0.691667
0.0611987
-0.0545633
-0.571513
0.564878
0.0478244
-0.039511
-0.439335
0.431022
0.0311279
-0.0216256
-0.278961
0.269459
0.0134647
-0.0061161
-0.119972
0.112623
0.00174409
-0.0151736
0.0134295
-0.073573
0.0771939
-0.00362088
0.0259176
-0.0380313
-0.357914
0.370027
0.0490413
-0.0576521
-0.500049
0.50866
0.066582
-0.0760892
-0.61141
0.620918
0.0867169
-0.0962418
-0.723492
0.733016
0.106847
-0.116217
-0.850238
0.859608
0.125935
-0.13426
-0.996025
1.00435
0.142518
-0.149116
-1.16255
1.16915
0.154961
-0.158744
-1.35229
1.35607
0.160692
-0.159948
-1.56848
1.56774
0.156381
-0.1504
-1.5193
1.51332
0.14341
-0.134578
-1.23516
1.22632
0.125993
-0.115753
-1.0105
1.00026
0.106455
-0.0963534
-0.830217
0.820116
0.0874334
-0.0780243
-0.683605
0.674196
0.0693351
-0.059897
-0.556686
0.547248
0.0506118
-0.0389613
-0.422046
0.410395
0.0282162
-0.0174148
-0.259911
0.24911
0.00942121
-0.00354355
-0.105928
0.10005
0.000748252
-0.0120067
0.0112585
-0.0842887
0.0816958
0.00259292
0.00366678
-0.0109335
-0.385073
0.392339
0.0192149
-0.0259791
-0.522042
0.528806
0.0343976
-0.0427606
-0.631395
0.639758
0.052404
-0.0611962
-0.742432
0.751224
0.0705447
-0.0790148
-0.868487
0.876957
0.0878172
-0.0950792
-1.01238
1.01965
0.102496
-0.108089
-1.17559
1.18118
0.11298
-0.115839
-1.35958
1.36243
0.116604
-0.114942
-1.56613
1.56447
0.110579
-0.103936
-1.50645
1.49981
0.0962949
-0.0869422
-1.21691
1.20755
0.0779883
-0.0678
-0.989585
0.979397
0.0583241
-0.0479037
-0.808824
0.798404
0.0387188
-0.0294662
-0.662126
0.652874
0.0216627
-0.0137056
-0.534652
0.526695
0.00676608
-0.000522505
-0.398056
0.391812
-0.0029293
0.00453962
-0.237447
0.235836
-0.00435275
0.00280359
-0.0933694
0.0949185
-0.00116526
-0.00988495
0.0110502
-0.0844217
0.0812412
0.00318053
-0.00470115
0.00119416
-0.402722
0.406229
0.00406095
-0.00939278
-0.539572
0.544904
0.0164548
-0.0236989
-0.648716
0.655961
0.031964
-0.0395293
-0.759503
0.767068
0.0477944
-0.0551343
-0.884792
0.892132
0.0625452
-0.0690307
-1.02675
1.03324
0.0754927
-0.0804871
-1.1864
1.1914
0.0844687
-0.0865879
-1.36473
1.36685
0.0870062
-0.0850117
-1.56224
1.56025
0.0805188
-0.0739918
-1.49268
1.48615
0.0667337
-0.0581685
-1.19823
1.18967
0.049703
-0.0404012
-0.969023
0.959721
0.031803
-0.0224135
-0.7881
0.77871
0.0143389
-0.00612102
-0.642215
0.633997
-0.000568456
0.00704793
-0.516059
0.509579
-0.0116826
0.0146321
-0.383704
0.380754
-0.0145915
0.0121049
-0.230831
0.233318
-0.00871618
0.0046368
-0.0947998
0.0988792
-0.00161053
-0.0111874
0.0127979
-0.0824969
0.0794606
0.00303629
-0.00757372
0.00627139
-0.413774
0.415077
-0.00307249
-0.00108447
-0.553267
0.557424
0.00725862
-0.0132874
-0.663165
0.669193
0.0203315
-0.0268196
-0.774366
0.780854
0.0338764
-0.0401763
-0.899077
0.905377
0.046934
-0.0524869
-1.03937
1.04493
0.0582285
-0.0622712
-1.19607
1.20011
0.0658255
-0.0677173
-1.36888
1.37077
0.0679228
-0.0657938
-1.55804
1.55591
0.0618017
-0.0560482
-1.4794
1.47364
0.0496408
-0.0418259
-1.18122
1.17341
0.0345079
-0.0265637
-0.950499
0.942554
0.0191624
-0.0114531
-0.769626
0.761917
0.00451546
0.00227513
-0.624884
0.618093
-0.00769007
0.0123892
-0.50117
0.496471
-0.015344
0.0168691
-0.374825
0.3733
-0.0157872
0.0121922
-0.231507
0.235102
-0.00853347
0.00436146
-0.100472
0.104644
-0.00145648
-0.0133379
0.0147944
-0.0805261
0.0779729
0.00255318
-0.00802658
0.00804023
-0.42095
0.420936
-0.00558488
0.00231531
-0.564468
0.567738
0.00267056
-0.00803999
-0.675394
0.680763
0.013964
-0.0196945
-0.786946
0.792677
0.0258318
-0.0313426
-0.911364
0.916875
0.0372133
-0.0422484
-1.05044
1.05547
0.0472279
-0.0510969
-1.20412
1.20799
0.0543159
-0.0560611
-1.37244
1.37419
0.0563274
-0.0544887
-1.55385
1.55201
0.0510313
-0.0458843
-1.46754
1.4624
0.0403613
-0.0337945
-1.16596
1.1594
0.027591
-0.0207754
-0.934763
0.927947
0.0146861
-0.00828516
-0.754313
0.747912
0.0027811
0.00264092
-0.610924
0.605502
-0.00676278
0.0101469
-0.48991
0.486526
-0.0121492
0.0128555
-0.369099
0.368392
-0.0115635
0.00868278
-0.233958
0.236839
-0.0059129
0.00295474
-0.105724
0.108682
-0.00102027
-0.0151417
0.0161619
-0.0789036
0.0767721
0.00213149
-0.00746412
0.00773026
-0.425703
0.425437
-0.00631634
0.00353379
-0.573277
0.576059
0.00109954
-0.00570476
-0.685828
0.690433
0.0108619
-0.0158862
-0.797874
0.802898
0.0213907
-0.0263761
-0.922167
0.927152
0.0318306
-0.0363402
-1.06032
1.06483
0.040961
-0.044597
-1.2117
1.21533
0.0476218
-0.0493202
-1.37581
1.37751
0.0496999
-0.0485273
-1.55028
1.54911
0.0455283
-0.0412056
-1.45707
1.45275
0.0364074
-0.030731
-1.15297
1.14729
0.0256219
-0.0197122
-0.921373
0.915464
0.0145357
-0.00929325
-0.741732
0.736489
0.00475842
-0.000325654
-0.599952
0.595519
-0.00304678
0.00590099
-0.481466
0.478612
-0.00722957
0.00771475
-0.365116
0.364631
-0.00706735
0.00515623
-0.235238
0.237149
-0.00338258
0.00172909
-0.10871
0.110364
-0.000623693
-0.0161156
0.0167393
-0.0777503
0.0761106
0.00163976
-0.00629088
0.0067172
-0.429186
0.42876
-0.00543236
0.00326911
-0.581104
0.583267
0.000904581
-0.00508735
-0.694958
0.699141
0.0100254
-0.0144135
-0.807732
0.81212
0.0193175
-0.02381
-0.932215
0.936707
0.0290674
-0.0332618
-1.06946
1.07365
0.0374966
-0.0410783
-1.21889
1.22247
0.0444344
-0.0461892
-1.37935
1.38111
0.0468899
-0.0459768
-1.5477
1.54679
0.0437272
-0.0397422
-1.44838
1.44439
0.0356795
-0.0308462
-1.14163
1.1368
0.026285
-0.0213067
-0.909797
0.904818
0.0167506
-0.0120027
-0.73117
0.726422
0.00826139
-0.00429609
-0.59079
0.586825
0.00118891
0.00127354
-0.474409
0.471947
-0.00270384
0.00354685
-0.361676
0.360833
-0.00343007
0.00256012
-0.235116
0.235986
-0.00170769
0.000933844
-0.109525
0.110299
-0.000397425
-0.0163983
0.0167958
-0.0771573
0.0758721
0.0012852
-0.0050551
0.00551267
-0.431961
0.431504
-0.00423834
0.00213003
-0.587959
0.590068
0.00171766
-0.00547962
-0.703234
0.706996
0.00976707
-0.0140337
-0.816611
0.820877
0.0186209
-0.0232908
-0.941109
0.945779
0.0279056
-0.0319913
-1.07801
1.0821
0.0364415
-0.0398906
-1.22602
1.22947
0.0429233
-0.0452338
-1.38288
1.38519
0.046307
-0.0458713
-1.54604
1.5456
0.043989
-0.0407539
-1.4407
1.43746
0.0371339
-0.0327249
-1.1317
1.12729
0.0286304
-0.0240724
-0.899711
0.895153
0.0199268
-0.0157258
-0.721748
0.717547
0.0119965
-0.00837706
-0.582565
0.578946
0.00554763
-0.0029459
-0.468242
0.46564
0.00125232
-0.000307424
-0.357739
0.356794
-0.000222337
0.000414769
-0.233492
0.233299
-0.000449079
0.000367535
-0.108747
0.108829
-0.000242942
-0.0162586
0.0165015
-0.0771058
0.0760277
0.0010781
-0.00370928
0.00395115
-0.434546
0.434304
-0.00286816
0.000699567
-0.59425
0.596418
0.00286542
-0.0065161
-0.710965
0.714616
0.0106543
-0.0145617
-0.825071
0.828978
0.0192964
-0.0232432
-0.949972
0.953919
0.0278737
-0.0318365
-1.0864
1.09036
0.036247
-0.0399642
-1.23298
1.2367
0.0433739
-0.0455795
-1.38734
1.38955
0.0471149
-0.0471922
-1.54517
1.54525
0.0460195
-0.0431384
-1.43415
1.43127
0.0399414
-0.0358642
-1.12297
1.11889
0.0320462
-0.0276695
-0.890294
0.885918
0.0238231
-0.0196874
-0.713072
0.708936
0.0160907
-0.012473
-0.574968
0.571351
0.00950176
-0.00696505
-0.462023
0.459486
0.00495194
-0.00354649
-0.35329
0.351884
0.00238449
-0.00138536
-0.23049
0.229491
0.000630545
-2.1185e-05
-0.106714
0.106105
-0.000140506
-0.0157434
0.0158839
-0.0773188
0.0765605
0.000758261
-0.00253629
0.00237452
-0.437337
0.437499
-0.00144238
-0.000862416
-0.599765
0.60207
0.00409414
-0.00761967
-0.718214
0.72174
0.0115984
-0.0156453
-0.83286
0.836907
0.0198158
-0.0239426
-0.958132
0.962259
0.0285692
-0.0323685
-1.09479
1.09859
0.0369169
-0.0406459
-1.24028
1.24401
0.0441856
-0.0469786
-1.39222
1.39501
0.0490707
-0.049494
-1.54541
1.54583
0.0486068
-0.0464134
-1.42853
1.42634
0.0436967
-0.0398776
-1.11465
1.11083
0.0361583
-0.0320883
-0.881361
0.877291
0.027975
-0.0240166
-0.704452
0.700494
0.0204196
-0.0166676
-0.567559
0.563806
0.013704
-0.0107859
-0.455661
0.452743
0.00849677
-0.00639704
-0.348298
0.346198
0.00478584
-0.00307376
-0.226279
0.224567
0.00158626
-0.000430262
-0.103696
0.10254
-2.36168e-05
-0.014968
0.0149916
-0.0779268
0.0773115
0.000615365
-0.00158961
0.0014903
-0.440349
0.440449
-9.68012e-05
-0.00217545
-0.605298
0.60757
0.00551953
-0.00890371
-0.724987
0.728372
0.0127337
-0.0164071
-0.840719
0.844393
0.0207139
-0.0245549
-0.966445
0.970286
0.0291549
-0.0333999
-1.10288
1.10712
0.0376337
-0.0417197
-1.24783
1.25192
0.0457206
-0.0486662
-1.39777
1.40071
0.051201
-0.0524497
-1.54652
1.54777
0.0520278
-0.0504162
-1.424
1.42239
0.0478287
-0.0443259
-1.10694
1.10344
0.0408389
-0.0367006
-0.872724
0.868586
0.0327064
-0.0285985
-0.695921
0.691813
0.0249051
-0.0209367
-0.559717
0.555749
0.0176701
-0.0145266
-0.44892
0.445776
0.0117086
-0.00909531
-0.342285
0.339672
0.00689556
-0.00456434
-0.220839
0.218508
0.00259206
-0.000932375
-0.099852
0.0981923
0.000143802
-0.014023
0.0138792
-0.0787718
0.0783155
0.000456318
-0.000592455
0.000334818
-0.44352
0.443777
0.00109495
-0.00354004
-0.610566
0.613011
0.0067535
-0.00996937
-0.731509
0.734725
0.013877
-0.0174109
-0.84811
0.851644
0.0215784
-0.0255468
-0.974634
0.978603
0.0300649
-0.0342903
-1.11126
1.11549
0.0387602
-0.0429004
-1.25597
1.26011
0.0471246
-0.0508453
-1.40399
1.40771
0.0538725
-0.0554632
-1.54901
1.5506
0.0557541
-0.0544709
-1.42068
1.41939
0.052386
-0.0492961
-1.09979
1.0967
0.0457436
-0.0416452
-0.864083
0.859985
0.0376328
-0.0332653
-0.687236
0.682868
0.0294956
-0.0252761
-0.551693
0.547474
0.0218056
-0.0181722
-0.441682
0.438049
0.0150606
-0.0119011
-0.335345
0.332185
0.00898868
-0.00603426
-0.214274
0.21132
0.00356424
-0.00142418