/*--------------------------------*- C++ -*----------------------------------*\
  =========                 |
  \\      /  F ield         | OpenFOAM: The Open Source CFD Toolbox
   \\    /   O peration     | Website:  https://openfoam.org
    \\  /    A nd           | Version:  9
     \\/     M anipulation  |
\*---------------------------------------------------------------------------*/
FoamFile
{
    format      ascii;
    class       volScalarField;
    location    "21";
    object      p;
}
// * * * * * * * * * * * * * * * * * * * * * * * * * * * * * * * * * * * * * //

dimensions      [0 2 -2 0 0 0 0];

internalField   nonuniform List<scalar> 
8800
(
0.411874
0.364091
0.325405
0.296413
0.275549
0.260714
0.250107
0.242603
0.237731
0.235569
0.236683
0.240709
0.247207
0.256403
0.269094
0.286765
0.311497
0.345405
0.387924
0.446622
0.243121
0.2508
0.258282
0.261594
0.260094
0.255019
0.248533
0.242444
0.237682
0.234759
0.234342
0.236669
0.240993
0.246802
0.25346
0.259654
0.263236
0.262465
0.256997
0.24828
0.221518
0.227685
0.231827
0.234789
0.236853
0.237466
0.236356
0.234233
0.232161
0.231129
0.23192
0.234116
0.236742
0.238779
0.239269
0.237975
0.235553
0.232099
0.22751
0.223741
0.215714
0.218372
0.221149
0.223583
0.225246
0.226425
0.227171
0.227268
0.226904
0.22672
0.227277
0.228242
0.228885
0.228775
0.228018
0.226803
0.224883
0.222227
0.219773
0.218267
0.210342
0.211774
0.213603
0.215693
0.217533
0.218917
0.219921
0.220698
0.221251
0.221677
0.222095
0.222329
0.22219
0.22169
0.220798
0.219375
0.217526
0.21555
0.214173
0.213346
0.205305
0.206229
0.207549
0.209224
0.210962
0.212575
0.213915
0.214975
0.215856
0.216577
0.216997
0.217027
0.216696
0.21597
0.214813
0.213357
0.211801
0.210353
0.209445
0.208908
0.200516
0.201184
0.202247
0.203693
0.205247
0.206838
0.208386
0.209767
0.210917
0.211825
0.212326
0.212308
0.211809
0.210895
0.209719
0.208435
0.207119
0.205957
0.205273
0.20489
0.195936
0.19643
0.19735
0.198702
0.200187
0.201726
0.203297
0.204823
0.206184
0.207282
0.207907
0.207922
0.207408
0.206536
0.205475
0.204314
0.203123
0.202112
0.201569
0.201295
0.191677
0.192045
0.192833
0.194082
0.195508
0.196976
0.198465
0.199994
0.201513
0.202856
0.203621
0.203712
0.203347
0.202697
0.201836
0.200823
0.199764
0.198905
0.198481
0.198282
0.18768
0.187939
0.188655
0.189878
0.191301
0.192807
0.194398
0.195998
0.197569
0.199034
0.200073
0.200472
0.200338
0.19979
0.199002
0.198085
0.197105
0.196328
0.195992
0.195863
0.184161
0.184314
0.184917
0.186032
0.187339
0.18873
0.190234
0.1919
0.193672
0.195424
0.196736
0.197365
0.197457
0.197213
0.196718
0.196042
0.195256
0.194638
0.194409
0.194342
0.181111
0.181195
0.181625
0.182517
0.183641
0.184921
0.18638
0.188036
0.189885
0.191879
0.193592
0.194676
0.195194
0.195301
0.195131
0.194774
0.194313
0.193967
0.193859
0.193823
0.178059
0.178117
0.178417
0.17909
0.180045
0.181223
0.182681
0.184467
0.186597
0.189003
0.19118
0.192663
0.193547
0.194
0.19418
0.194176
0.194062
0.193981
0.193952
0.193916
0.174391
0.174449
0.174698
0.175225
0.17604
0.17714
0.178626
0.180541
0.182948
0.185829
0.188599
0.190672
0.192078
0.192978
0.193552
0.193915
0.194123
0.194228
0.194238
0.194196
0.169831
0.169894
0.170164
0.170715
0.171524
0.172726
0.174425
0.176689
0.179587
0.183118
0.186608
0.189285
0.191154
0.192474
0.193354
0.193963
0.194385
0.19458
0.194612
0.194569
0.164305
0.164354
0.164666
0.165321
0.166319
0.167769
0.16976
0.172461
0.175978
0.180343
0.184721
0.188158
0.19062
0.192322
0.193562
0.194466
0.194996
0.195233
0.195293
0.195252
0.157914
0.157954
0.158315
0.159193
0.160384
0.162168
0.164638
0.167962
0.172297
0.177692
0.183171
0.187521
0.190674
0.192915
0.19448
0.195567
0.196191
0.196495
0.196597
0.196561
0.150604
0.150636
0.151053
0.15207
0.153705
0.155852
0.158919
0.163024
0.168386
0.175086
0.181913
0.187369
0.191362
0.194205
0.196202
0.197504
0.198296
0.198705
0.198848
0.198809
0.142151
0.142177
0.142683
0.143852
0.145813
0.148599
0.152386
0.157489
0.164159
0.172495
0.180989
0.187802
0.192801
0.196361
0.198853
0.200498
0.201517
0.202063
0.202246
0.2022
0.132127
0.132169
0.132787
0.134209
0.136593
0.140027
0.144768
0.151178
0.159543
0.16994
0.18048
0.188913
0.195082
0.199528
0.20262
0.204703
0.206018
0.206724
0.206948
0.206887
0.119862
0.119914
0.120694
0.122502
0.12548
0.12981
0.135829
0.143957
0.154487
0.16745
0.180478
0.190842
0.198455
0.203896
0.207707
0.210303
0.211961
0.212838
0.21311
0.213033
0.104565
0.104638
0.10568
0.108045
0.111918
0.117509
0.12527
0.13566
0.148958
0.165098
0.181116
0.193771
0.203025
0.209654
0.214321
0.217527
0.219585
0.220655
0.220984
0.220887
0.0850834
0.0851976
0.0866392
0.0898728
0.0950948
0.102523
0.112716
0.126137
0.142973
0.162992
0.182532
0.197832
0.208995
0.217012
0.222689
0.226624
0.229173
0.230502
0.230884
0.230758
0.0596349
0.0598251
0.0619564
0.0666328
0.0739878
0.0842044
0.0978825
0.115368
0.136656
0.161306
0.184899
0.203194
0.216525
0.226149
0.233024
0.237838
0.240972
0.242589
0.243039
0.242879
0.0251859
0.0255711
0.029092
0.0364804
0.0474458
0.0620237
0.0806838
0.103513
0.130268
0.160296
0.188414
0.209997
0.225729
0.237178
0.24547
0.251372
0.255252
0.257232
0.257746
0.257536
-0.0241021
-0.0226848
-0.0155624
-0.00264744
0.0146016
0.0359038
0.0614338
0.0910257
0.124232
0.160263
0.193243
0.21831
0.236607
0.250067
0.260002
0.267244
0.272103
0.274584
0.27518
0.274895
-0.0976118
-0.0891664
-0.0727453
-0.0498
-0.0230971
0.00717461
0.0411223
0.0785235
0.118914
0.161533
0.199854
0.228839
0.250141
0.266069
0.27816
0.287338
0.293773
0.297252
0.298195
0.298063
-0.176267
-0.1571
-0.130784
-0.097466
-0.0610486
-0.0216712
0.0207845
0.0662061
0.114225
0.164215
0.208972
0.24301
0.268352
0.287674
0.302736
0.314557
0.323323
0.328604
0.330431
0.330472
-0.239773
-0.217955
-0.183554
-0.141873
-0.0969289
-0.0490916
0.00149523
0.0546693
0.110064
0.167068
0.217777
0.256314
0.285123
0.307242
0.324581
0.33821
0.348516
0.354875
0.35637
0.356615
-0.291447
-0.267625
-0.228293
-0.180623
-0.128984
-0.0741713
-0.0165077
0.0436576
0.105838
0.169328
0.225403
0.267775
0.29931
0.323418
0.342243
0.357066
0.368187
0.374931
0.376762
0.377105
-0.333922
-0.309197
-0.266348
-0.214094
-0.157191
-0.0966995
-0.0330487
0.0332376
0.101482
0.170811
0.231623
0.277206
0.310833
0.336322
0.356072
0.371527
0.382968
0.389964
0.392143
0.392487
-0.370163
-0.344918
-0.299514
-0.243576
-0.182339
-0.11707
-0.0482942
0.0233471
0.0970168
0.17161
0.23667
0.284996
0.320286
0.346749
0.367016
0.382683
0.3942
0.401223
0.403547
0.40385
-0.402104
-0.376566
-0.329189
-0.270219
-0.205352
-0.135954
-0.0626641
0.0137627
0.0923631
0.171821
0.240804
0.291662
0.328435
0.355672
0.376256
0.391979
0.403447
0.410452
0.412901
0.413187
-0.431195
-0.405388
-0.356399
-0.294855
-0.226863
-0.153859
-0.0765608
0.00420619
0.0873624
0.171426
0.244219
0.297522
0.335678
0.363637
0.384537
0.400315
0.411747
0.4187
0.421247
0.421513
-0.458286
-0.432236
-0.381854
-0.318097
-0.247377
-0.171194
-0.0903027
-0.00556937
0.0818541
0.170329
0.246856
0.302647
0.342293
0.371087
0.392388
0.40831
0.41977
0.426548
0.429105
0.429459
-0.484072
-0.457719
-0.406059
-0.340395
-0.26724
-0.188225
-0.104099
-0.0157411
0.0756677
0.168402
0.248741
0.307236
0.348577
0.378346
0.400164
0.416311
0.427819
0.4345
0.436982
0.437327
-0.508835
-0.482148
-0.429363
-0.362005
-0.286674
-0.205137
-0.118103
-0.0264255
0.0687299
0.165661
0.24994
0.311323
0.354583
0.385536
0.408036
0.424533
0.436159
0.442793
0.445133
0.445407
-0.532913
-0.505832
-0.452108
-0.38311
-0.305845
-0.222052
-0.132386
-0.0376651
0.06102
0.162031
0.250322
0.314859
0.36032
0.39272
0.416096
0.433077
0.444886
0.451491
0.453665
0.453843
-0.556351
-0.528795
-0.474278
-0.403804
-0.324821
-0.239007
-0.146977
-0.0494821
0.0524684
0.15739
0.249786
0.317771
0.365777
0.399893
0.424353
0.441956
0.45401
0.460587
0.462623
0.462657
-0.57923
-0.551266
-0.495893
-0.424129
-0.343615
-0.256011
-0.161882
-0.061906
0.0430357
0.151698
0.248234
0.319917
0.370835
0.407005
0.432781
0.451141
0.463483
0.469982
0.471858
0.471762
-0.601622
-0.573186
-0.516997
-0.444087
-0.362227
-0.273041
-0.177064
-0.0748902
0.0327613
0.144925
0.24554
0.321136
0.37533
0.413957
0.441336
0.460583
0.47322
0.479569
0.481223
0.481015
-0.623544
-0.594573
-0.537608
-0.463651
-0.380593
-0.290037
-0.192452
-0.0883595
0.0216931
0.137043
0.241607
0.321242
0.37907
0.420622
0.449988
0.470275
0.483145
0.48923
0.490595
0.490289
-0.64483
-0.615359
-0.557659
-0.482777
-0.398668
-0.306921
-0.207968
-0.102227
0.00989394
0.128087
0.23635
0.320037
0.381791
0.426804
0.458722
0.480299
0.493229
0.498774
0.499743
0.499344
-0.665426
-0.63549
-0.577118
-0.501405
-0.416387
-0.323628
-0.223515
-0.116408
-0.00253728
0.11811
0.229729
0.317348
0.383189
0.432186
0.467464
0.490922
0.503714
0.508094
0.50839
0.507931
-0.68541
-0.65493
-0.59595
-0.519494
-0.433682
-0.34007
-0.239002
-0.130785
-0.0154893
0.107198
0.221734
0.31304
0.38294
0.436284
0.475922
0.502531
0.515518
0.517682
0.516349
0.515882
-0.704602
-0.67366
-0.6141
-0.536978
-0.450491
-0.356165
-0.254329
-0.145241
-0.0288326
0.0954783
0.212414
0.307016
0.380748
0.438416
0.483312
0.51509
0.530374
0.530271
0.525111
0.523478
-0.723094
-0.691675
-0.631588
-0.553882
-0.46685
-0.371961
-0.269555
-0.159836
-0.0426368
0.0828812
0.201653
0.299039
0.376318
0.437768
0.488141
0.527272
0.548972
0.551834
0.54178
0.521781
-0.740825
-0.708979
-0.648539
-0.570394
-0.483044
-0.387783
-0.285091
-0.175057
-0.0574508
0.0687393
0.18875
0.288238
0.368884
0.433169
0.487277
0.534126
0.562427
0.562091
0.546575
0.5236
-0.757639
-0.72574
-0.664778
-0.586261
-0.498786
-0.403292
-0.300709
-0.190567
-0.072942
0.053373
0.173909
0.274412
0.358026
0.424073
0.47576
0.523577
0.551118
0.541535
0.470506
0.431662
-0.772928
-0.743021
-0.679954
-0.600915
-0.513382
-0.418022
-0.316124
-0.206151
-0.0888928
0.0369347
0.15716
0.257473
0.343
0.410903
0.453226
0.483846
0.496992
0.451213
0.376566
0.328684
-0.827149
-0.757801
-0.693767
-0.615718
-0.528226
-0.433328
-0.331402
-0.222061
-0.105628
0.019044
0.13804
0.237107
0.321213
0.395438
0.402807
0.415237
0.385103
0.32001
0.238245
0.192091
-0.788152
-0.772859
-0.71362
-0.636756
-0.549624
-0.455206
-0.354454
-0.246226
-0.131456
-0.00922982
0.10633
0.201892
0.277664
0.348194
0.351455
0.239262
0.128236
0.0510612
-0.0284908
0.0121556
-0.817604
-0.789438
-0.729829
-0.653014
-0.566314
-0.472314
-0.371547
-0.264238
-0.150938
-0.0310918
0.0809413
0.172071
0.240383
0.27859
0.23016
0.075233
-0.0659491
-0.16767
-0.280763
-0.215087
-0.840159
-0.808864
-0.748474
-0.671302
-0.584738
-0.490966
-0.390515
-0.284311
-0.172784
-0.0558364
0.0519954
0.137426
0.196267
0.205669
0.092874
-0.105042
-0.278187
-0.413151
-0.577038
-0.519415
-0.861909
-0.829147
-0.7678
-0.689914
-0.603273
-0.509723
-0.409963
-0.304977
-0.195394
-0.0816556
0.021275
0.100367
0.146735
0.117703
-0.055259
-0.285589
-0.507646
-0.707448
-0.938117
-0.93582
-0.882695
-0.849791
-0.787736
-0.709241
-0.622501
-0.529234
-0.430262
-0.326593
-0.219172
-0.108972
-0.0115192
0.0606182
0.0893945
0.0238065
-0.198325
-0.449343
-0.712065
-0.948195
-1.2453
-1.60554
-0.903582
-0.870926
-0.808504
-0.729641
-0.642799
-0.549773
-0.451514
-0.349176
-0.243997
-0.137524
-0.0457227
0.0186656
0.0312528
-0.0861541
-0.324345
-0.576421
-0.832639
-1.05139
-1.1377
-1.26987
-0.925285
-0.892888
-0.830377
-0.751405
-0.664575
-0.571876
-0.474413
-0.373563
-0.270921
-0.168628
-0.0829409
-0.027736
-0.0390764
-0.204861
-0.435367
-0.667791
-0.874192
-0.996531
-1.02097
-1.04631
-0.948133
-0.915965
-0.853477
-0.774555
-0.687894
-0.595664
-0.499207
-0.400118
-0.300408
-0.202916
-0.123889
-0.079449
-0.117843
-0.314139
-0.53591
-0.742377
-0.902609
-0.964088
-0.978661
-0.982939
-0.972309
-0.940227
-0.877829
-0.79902
-0.712641
-0.621066
-0.525819
-0.428785
-0.332416
-0.240347
-0.168448
-0.13712
-0.198149
-0.41773
-0.629846
-0.815904
-0.939933
-0.956077
-0.957767
-0.957754
-0.997727
-0.965579
-0.903379
-0.824729
-0.738749
-0.647972
-0.554138
-0.459443
-0.366801
-0.280705
-0.216632
-0.198215
-0.286579
-0.514114
-0.718315
-0.881532
-0.929397
-0.943751
-0.946376
-0.946158
-1.0241
-0.991876
-0.929978
-0.85152
-0.766037
-0.676208
-0.583987
-0.491884
-0.403373
-0.323634
-0.268266
-0.260951
-0.39046
-0.603967
-0.799537
-0.929993
-0.948327
-0.942398
-0.940465
-0.939775
-1.05082
-1.01886
-0.957168
-0.879104
-0.794224
-0.705484
-0.61505
-0.525761
-0.441729
-0.368711
-0.322378
-0.330534
-0.49422
-0.691627
-0.86281
-0.95612
-0.951716
-0.943103
-0.938044
-0.935967
-1.07752
-1.04594
-0.984559
-0.907031
-0.822872
-0.735338
-0.646847
-0.560548
-0.481197
-0.415381
-0.377529
-0.404987
-0.593333
-0.783241
-0.898499
-0.939239
-0.943438
-0.934246
-0.9265
-0.925221
-1.10326
-1.07225
-1.01156
-0.934696
-0.851358
-0.765155
-0.678692
-0.595503
-0.520793
-0.462658
-0.43305
-0.478307
-0.686901
-0.892785
-0.922833
-0.871122
-0.939931
-0.971475
-0.979485
-0.976837
-1.12707
-1.09675
-1.03755
-0.961282
-0.878928
-0.794095
-0.70967
-0.629576
-0.559303
-0.508808
-0.488693
-0.554554
-0.787218
-1.03544
-1.32645
-1.33438
-1.22328
-1.20156
-1.19543
-1.18223
-1.14763
-1.11866
-1.06082
-0.98581
-0.904603
-0.821158
-0.738643
-0.661342
-0.595304
-0.551429
-0.544043
-0.628086
-0.913584
-1.16606
-1.38553
-1.41685
-1.41934
-1.45091
-1.43062
-1.42252
-1.1636
-1.13645
-1.08065
-1.00707
-0.927152
-0.845124
-0.76433
-0.689099
-0.626761
-0.588002
-0.594873
-0.688047
-1.00732
-1.02739
-0.694884
-0.829965
-1.27688
-1.46908
-1.47571
-1.48004
-1.1736
-1.14889
-1.09569
-1.02387
-0.945347
-0.864674
-0.785122
-0.711133
-0.650521
-0.61608
-0.633951
-0.754303
-1.11653
-1.4563
-1.65812
-2.07252
-2.14605
-1.89316
-1.68715
-1.67987
-1.17605
-1.15462
-1.10475
-1.03511
-0.958041
-0.878468
-0.799549
-0.725609
-0.663862
-0.62994
-0.649513
-0.816033
-1.34721
-2.2316
-3.16771
-3.68415
-3.68539
-3.27119
-2.79821
-2.56376
-1.17034
-1.15256
-1.10683
-1.03992
-0.964325
-0.885548
-0.806382
-0.730713
-0.664949
-0.621342
-0.632068
-0.770445
-1.27952
-1.95884
-2.69322
-3.08877
-3.0599
-2.76852
-2.43934
-2.28304
-1.15541
-1.14115
-1.10121
-1.03798
-0.963876
-0.885457
-0.805132
-0.725945
-0.651775
-0.590529
-0.563552
-0.550304
-0.69261
-0.771197
-0.778424
-0.650203
-0.392673
-0.136585
0.0550648
0.144095
-1.13226
-1.12194
-1.08815
-1.02947
-0.956955
-0.878525
-0.796542
-0.712282
-0.626672
-0.54169
-0.451142
-0.34983
-0.0957899
0.340918
0.848839
1.36084
1.75958
2.0139
2.14112
2.17807
-1.1031
-1.09663
-1.06966
-1.01573
-0.944521
-0.866035
-0.782395
-0.69391
-0.599143
-0.490159
-0.369141
-0.229686
0.0687344
0.645459
1.30517
1.89904
2.33763
2.59545
2.71492
2.75191
-1.07076
-1.06735
-1.04804
-0.998047
-0.92787
-0.849597
-0.765646
-0.675735
-0.576014
-0.458208
-0.328872
-0.18169
0.014089
0.455412
1.025
1.51725
1.88257
2.09686
2.20234
2.23933
-1.03654
-1.03532
-1.02196
-0.976302
-0.907197
-0.829415
-0.747784
-0.660489
-0.563379
-0.448902
-0.325263
-0.208846
-0.0965274
0.133729
0.513876
0.853851
1.11541
1.27659
1.35752
1.38388
-0.983867
-0.984893
-0.975841
-0.936878
-0.873602
-0.801657
-0.727405
-0.648299
-0.559511
-0.453473
-0.341329
-0.255695
-0.188883
-0.0642684
0.197895
0.435566
0.611901
0.72216
0.781871
0.795912
-0.898983
-0.899371
-0.892805
-0.865204
-0.817943
-0.762149
-0.702495
-0.636714
-0.558564
-0.461243
-0.356479
-0.28148
-0.244447
-0.163063
0.0209198
0.172415
0.280441
0.343945
0.372594
0.379724
-0.803988
-0.803118
-0.798018
-0.782618
-0.754165
-0.717875
-0.676193
-0.626532
-0.561875
-0.4724
-0.370344
-0.291012
-0.251443
-0.194951
-0.088046
0.00324756
0.0661603
0.101242
0.116905
0.119178
-0.734214
-0.732625
-0.729101
-0.721593
-0.706173
-0.685511
-0.659538
-0.625798
-0.5753
-0.494782
-0.38767
-0.288815
-0.21655
-0.170221
-0.121967
-0.0799573
-0.0522527
-0.033624
-0.024562
-0.0242513
-0.703444
-0.702014
-0.699676
-0.695712
-0.688187
-0.677292
-0.663806
-0.64586
-0.615283
-0.550334
-0.442964
-0.3203
-0.222035
-0.178887
-0.162423
-0.141159
-0.118985
-0.103626
-0.0955147
-0.0963266
-0.703058
-0.702262
-0.70126
-0.699938
-0.697811
-0.695966
-0.696429
-0.700125
-0.702256
-0.683573
-0.596027
-0.450732
-0.329686
-0.284687
-0.263859
-0.227659
-0.188834
-0.159062
-0.145103
-0.146598
-0.718432
-0.718495
-0.719373
-0.721492
-0.726028
-0.736003
-0.75655
-0.795743
-0.862112
-0.942865
-0.914296
-0.722641
-0.553383
-0.496293
-0.435574
-0.355743
-0.280566
-0.227222
-0.205229
-0.209133
-0.734387
-0.735591
-0.738812
-0.745042
-0.757665
-0.782501
-0.830142
-0.922276
-1.09831
-1.35358
-1.42911
-1.15068
-0.867904
-0.736968
-0.624578
-0.497037
-0.386938
-0.313883
-0.292935
-0.297186
-0.734107
-0.736517
-0.741824
-0.751141
-0.772096
-0.811863
-0.887978
-1.03982
-1.34881
-1.8405
-2.05113
-1.68718
-1.25228
-1.0179
-0.847216
-0.676299
-0.541922
-0.467631
-0.455153
-0.459736
-0.702233
-0.705221
-0.71151
-0.724093
-0.749403
-0.798359
-0.893631
-1.07691
-1.47303
-2.08111
-2.41153
-2.02947
-1.51976
-1.24754
-1.0403
-0.873477
-0.774171
-0.729299
-0.717065
-0.717875
-0.632118
-0.635001
-0.641041
-0.653184
-0.677632
-0.724681
-0.815949
-1.00202
-1.3815
-1.96505
-2.20822
-1.87466
-1.51536
-1.29498
-1.11
-1.02216
-0.993214
-0.975844
-0.957465
-0.950802
-0.529373
-0.531506
-0.535997
-0.545126
-0.563947
-0.600331
-0.670986
-0.814689
-1.10753
-1.5504
-1.7196
-1.51883
-1.30426
-1.11661
-1.01239
-0.987409
-1.00801
-1.00422
-0.991687
-0.984915
-0.409541
-0.410621
-0.412995
-0.418111
-0.429218
-0.451046
-0.493491
-0.579181
-0.754437
-1.03358
-1.16032
-1.06766
-0.919827
-0.800586
-0.76719
-0.808251
-0.836354
-0.839219
-0.83521
-0.831919
-0.291071
-0.291206
-0.291758
-0.293365
-0.297609
-0.306446
-0.323851
-0.358837
-0.430256
-0.557328
-0.627104
-0.565383
-0.49579
-0.478232
-0.535924
-0.58999
-0.611039
-0.61537
-0.616061
-0.615208
-0.188425
-0.187971
-0.187424
-0.186887
-0.18675
-0.187184
-0.188625
-0.192131
-0.199166
-0.201625
-0.193674
-0.188413
-0.202205
-0.275233
-0.346337
-0.386343
-0.401717
-0.408559
-0.411345
-0.411798
-0.108753
-0.108081
-0.107151
-0.105834
-0.103857
-0.100566
-0.0950578
-0.0858704
-0.0704114
-0.0447544
-0.0168717
-0.0199437
-0.0828758
-0.153281
-0.203919
-0.231533
-0.244314
-0.250406
-0.253867
-0.254859
-0.0525572
-0.051917
-0.051057
-0.0498272
-0.0476917
-0.0437897
-0.0370544
-0.0259847
-0.00885296
0.0140651
0.028024
0.0139923
-0.0322536
-0.0803813
-0.113926
-0.132925
-0.141628
-0.146276
-0.149073
-0.149989
-0.0163267
-0.015831
-0.015221
-0.0144175
-0.0128711
-0.0097895
-0.00436178
0.00435524
0.0168861
0.0309118
0.0342759
0.0184514
-0.0118253
-0.0415162
-0.0625136
-0.074545
-0.0805282
-0.0836613
-0.0855208
-0.0861425
0.00485464
0.00519102
0.00555037
0.0058933
0.00672795
0.00866049
0.0122208
0.0178537
0.0253832
0.0322476
0.0303533
0.0168004
-0.00279723
-0.0208956
-0.0337749
-0.0413404
-0.0452073
-0.0472141
-0.0483562
-0.0487323
0.0156017
0.0158086
0.0159723
0.015985
0.0162546
0.0172124
0.0191784
0.0223132
0.0261948
0.0286812
0.0249017
0.0144973
0.00177376
-0.00940781
-0.0173824
-0.0222159
-0.0247778
-0.026085
-0.0267828
-0.0270053
0.0195472
0.0196636
0.0197004
0.0195201
0.0194413
0.019729
0.0205818
0.0220172
0.0236099
0.0238082
0.0198616
0.0122956
0.00399376
-0.00304515
-0.00808201
-0.0112327
-0.0129642
-0.0138347
-0.0142708
-0.0144054
0.019268
0.0193282
0.0192986
0.0190464
0.0187882
0.0186973
0.0188927
0.0193395
0.0196913
0.0188986
0.0154858
0.0101582
0.00472945
0.000239544
-0.00298987
-0.00506741
-0.00624618
-0.00683296
-0.00710419
-0.00718664
0.0164618
0.0164902
0.0164358
0.0161822
0.0158688
0.0156132
0.0154864
0.0154448
0.0152405
0.0142034
0.0115733
0.00796472
0.0044678
0.00162209
-0.000437896
-0.00179476
-0.0025828
-0.00296766
-0.00313625
-0.00318903
0.0121838
0.0121956
0.0121397
0.0119228
0.0116359
0.011361
0.0111419
0.0109428
0.0106029
0.00972408
0.00793467
0.00567055
0.00354702
0.00183443
0.000583747
-0.000259787
-0.000761945
-0.00100561
-0.00110932
-0.00113931
0.00706204
0.00706539
0.00702229
0.00686884
0.00666708
0.00647475
0.00630983
0.00614959
0.00590763
0.00538393
0.00441686
0.00324874
0.00217539
0.00131361
0.000677942
0.000237455
-3.29674e-05
-0.000163708
-0.000220546
-0.000239192
0.00148202
0.00149075
0.00153845
0.00158022
0.00155069
0.00149232
0.00142892
0.00136602
0.00128972
0.0011714
0.000970832
0.00070211
0.000440998
0.000220467
5.16244e-05
-6.56543e-05
-0.000121764
-0.000103665
-5.83671e-05
-3.56323e-05
-0.666917
-0.456661
-0.217491
-0.0185648
0.142693
0.272198
0.381102
0.472893
0.514337
0.491783
-0.288982
-0.14313
0.00985679
0.141943
0.253985
0.347663
0.423751
0.47796
0.505939
0.517446
-0.0273062
0.0703384
0.17334
0.264862
0.343786
0.409981
0.462592
0.501024
0.528237
0.545577
0.158165
0.225594
0.297815
0.363482
0.420563
0.468918
0.508424
0.539652
0.564549
0.582438
0.299232
0.348099
0.400142
0.449473
0.492936
0.530669
0.562716
0.5891
0.610795
0.628387
0.413329
0.449822
0.491599
0.530758
0.566434
0.598182
0.625725
0.648668
0.667383
0.684621
0.511913
0.542665
0.579216
0.613535
0.645398
0.674165
0.699176
0.719828
0.735927
0.752979
0.604234
0.634734
0.670327
0.70373
0.734522
0.762125
0.785807
0.804902
0.818692
0.835747
0.701882
0.735804
0.773438
0.807884
0.838684
0.865519
0.887999
0.905672
0.91784
0.93528
0.818404
0.856476
0.895765
0.9306
0.960417
0.985566
1.00627
1.02242
1.03409
1.0522
0.96432
1.00319
1.03948
1.07047
1.09643
1.11877
1.13803
1.15372
1.16628
1.18431
1.1396
1.17161
1.19799
1.22058
1.24072
1.25959
1.27742
1.29399
1.30942
1.32752
1.32853
1.34588
1.36111
1.37747
1.39347
1.40808
1.42136
1.43534
1.45294
1.47312
1.51067
1.52011
1.53171
1.54256
1.55188
1.56154
1.57242
1.58384
1.59523
1.6106
1.71785
1.72156
1.70663
1.69185
1.68564
1.69137
1.70987
1.74021
1.77242
1.79908
2.0242
1.88934
1.81275
1.77048
1.75308
1.75705
1.78449
1.8409
1.94353
2.16791
0.30247
0.300344
0.295859
0.287237
0.275018
0.262892
0.25266
0.244748
0.23909
0.235754
0.235256
0.237813
0.242748
0.249832
0.259111
0.270567
0.283154
0.294143
0.300236
0.303271
0.226913
0.232761
0.239105
0.243607
0.246085
0.245768
0.243035
0.239217
0.235665
0.233309
0.233007
0.235019
0.238507
0.242641
0.246321
0.248107
0.247097
0.243555
0.238346
0.231708
0.218491
0.220788
0.224206
0.227224
0.22932
0.230831
0.231592
0.231261
0.230192
0.229213
0.22922
0.230437
0.232053
0.233185
0.233218
0.232208
0.230559
0.22814
0.224819
0.221873
0.212979
0.214064
0.215923
0.218345
0.220414
0.22188
0.222921
0.223666
0.224024
0.224138
0.224439
0.225007
0.22537
0.225224
0.224627
0.223614
0.222003
0.219796
0.21762
0.216209
0.20779
0.208446
0.209592
0.211372
0.213231
0.214932
0.216275
0.217295
0.218128
0.218805
0.219319
0.219575
0.219484
0.21906
0.218253
0.216975
0.215347
0.213627
0.212186
0.211378
0.202886
0.203333
0.20417
0.205586
0.207207
0.208847
0.210413
0.211769
0.212881
0.213802
0.214457
0.214684
0.214474
0.21384
0.212797
0.211492
0.210075
0.208692
0.207613
0.207069
0.19819
0.19851
0.199178
0.200407
0.201882
0.203424
0.205008
0.206549
0.207921
0.209047
0.209846
0.210134
0.209861
0.209121
0.208075
0.206888
0.20566
0.204464
0.203588
0.203191
0.19377
0.193997
0.194545
0.195662
0.197073
0.198557
0.200066
0.201612
0.203145
0.204525
0.205517
0.205854
0.205595
0.204944
0.204073
0.20305
0.20193
0.200859
0.20013
0.199837
0.189637
0.189793
0.190247
0.191268
0.192624
0.19408
0.195588
0.197115
0.198632
0.200108
0.201296
0.201868
0.20187
0.201462
0.200748
0.199844
0.198839
0.197891
0.197286
0.197073
0.185845
0.185929
0.186306
0.187278
0.188608
0.190038
0.191568
0.193202
0.194907
0.196577
0.198007
0.198846
0.199026
0.198745
0.198162
0.197409
0.19653
0.195672
0.195162
0.195026
0.182602
0.182635
0.182903
0.183688
0.184825
0.186082
0.187461
0.188988
0.190693
0.192545
0.194288
0.195483
0.196052
0.196187
0.195998
0.195571
0.194995
0.194402
0.194079
0.19401
0.17963
0.179639
0.179821
0.180396
0.181331
0.182476
0.183826
0.185429
0.187296
0.189394
0.191522
0.193152
0.194106
0.194529
0.194639
0.194529
0.194288
0.19402
0.193894
0.193859
0.176327
0.176342
0.176491
0.176904
0.177631
0.178628
0.179894
0.181516
0.183557
0.186013
0.188637
0.190798
0.192231
0.193148
0.193632
0.193924
0.194049
0.194099
0.194113
0.19409
0.172233
0.172246
0.172394
0.172767
0.173416
0.174382
0.175728
0.177535
0.17988
0.182801
0.186054
0.18886
0.190843
0.192165
0.193073
0.193677
0.194092
0.194347
0.194429
0.194413
0.167186
0.167189
0.167351
0.167792
0.168534
0.169623
0.17118
0.173303
0.176129
0.179693
0.183732
0.187285
0.189848
0.191652
0.192935
0.193762
0.194408
0.19478
0.194903
0.194902
0.161222
0.161207
0.161389
0.161917
0.162849
0.16417
0.166055
0.168652
0.172086
0.17647
0.181499
0.185989
0.189288
0.191641
0.193289
0.194494
0.195273
0.195689
0.19585
0.195866
0.154385
0.154354
0.15455
0.155201
0.156358
0.158091
0.160375
0.16358
0.16782
0.173243
0.179494
0.185131
0.189309
0.192305
0.194425
0.195904
0.196832
0.197357
0.197587
0.197622
0.146536
0.146489
0.146732
0.14749
0.148892
0.15105
0.153963
0.157884
0.163135
0.169868
0.177646
0.184678
0.189924
0.19371
0.196378
0.198213
0.199386
0.200074
0.200385
0.200433
0.137366
0.137309
0.137605
0.138546
0.140249
0.142836
0.146434
0.151372
0.157945
0.166343
0.176016
0.18475
0.191277
0.195975
0.199319
0.201608
0.203113
0.204018
0.204419
0.204475
0.126274
0.126204
0.126602
0.127788
0.129882
0.133063
0.1376
0.14384
0.152112
0.162625
0.174645
0.185439
0.193466
0.1993
0.203416
0.206262
0.208167
0.209325
0.209825
0.209892
0.112579
0.112497
0.113048
0.11457
0.117235
0.121288
0.127082
0.135039
0.145529
0.158719
0.173617
0.186876
0.196722
0.203839
0.208879
0.212384
0.214755
0.216201
0.216819
0.216897
0.0953117
0.0952204
0.0960052
0.0980538
0.101567
0.106891
0.114464
0.124762
0.138143
0.154679
0.173049
0.189213
0.201148
0.209778
0.215912
0.220202
0.223123
0.224903
0.225661
0.225746
0.0730119
0.0729217
0.0740988
0.0769897
0.0818437
0.0891192
0.0992838
0.112805
0.129946
0.15062
0.173102
0.192613
0.206941
0.217315
0.224729
0.229958
0.233546
0.235728
0.236638
0.236736
0.0433807
0.0433401
0.0452298
0.049594
0.0567102
0.0670806
0.0810972
0.0990702
0.121061
0.146748
0.173975
0.197241
0.214243
0.226592
0.235497
0.241852
0.246257
0.24893
0.250025
0.250128
0.00224803
0.00241594
0.00589831
0.0133163
0.0245887
0.0400715
0.0598044
0.0837926
0.111832
0.143382
0.1759
0.20324
0.223134
0.237665
0.24828
0.25599
0.261436
0.264728
0.266021
0.266118
-0.0581777
-0.0567016
-0.0482824
-0.0343404
-0.0153725
0.00826658
0.0360091
0.0676474
0.102831
0.140926
0.179089
0.210669
0.23357
0.250405
0.262896
0.272178
0.278867
0.28296
0.284518
0.284619
-0.130465
-0.128067
-0.112227
-0.0879308
-0.0583801
-0.0252318
0.0112936
0.0511418
0.0940495
0.13946
0.184309
0.221332
0.248425
0.268686
0.284065
0.295824
0.304607
0.30987
0.311504
0.311837
-0.204837
-0.197118
-0.17377
-0.139464
-0.100228
-0.0578792
-0.0126469
0.0353949
0.0860313
0.138801
0.190453
0.233025
0.264345
0.288054
0.306412
0.320768
0.331735
0.337926
0.340701
0.341468
-0.263363
-0.254034
-0.225864
-0.184838
-0.138117
-0.0880485
-0.0351145
0.0204764
0.0783824
0.138081
0.196033
0.243559
0.278464
0.304881
0.325329
0.34132
0.353518
0.361065
0.364867
0.365832
-0.310869
-0.300997
-0.269379
-0.223566
-0.171177
-0.114985
-0.0556374
0.00649895
0.0709221
0.13694
0.200582
0.252397
0.290185
0.318596
0.340463
0.357528
0.370577
0.379045
0.383204
0.384229
-0.350407
-0.340399
-0.306636
-0.257067
-0.200156
-0.138981
-0.0742587
-0.00648343
0.063675
0.135363
0.204101
0.259645
0.299765
0.329628
0.352398
0.370008
0.383396
0.39226
0.396541
0.397636
-0.384741
-0.374715
-0.339348
-0.286796
-0.226162
-0.160785
-0.091437
-0.0187203
0.0565652
0.133387
0.206789
0.265675
0.307812
0.338843
0.362221
0.38007
0.393504
0.402473
0.406716
0.407886
-0.415425
-0.405426
-0.368853
-0.313819
-0.250089
-0.181099
-0.107678
-0.0305517
0.0493989
0.130971
0.208759
0.270849
0.314893
0.346951
0.370807
0.388831
0.402283
0.411277
0.415538
0.416617
-0.443663
-0.433658
-0.396087
-0.338944
-0.272559
-0.200407
-0.123398
-0.0422925
0.0419473
0.12801
0.210039
0.275253
0.321177
0.354297
0.378689
0.396939
0.410453
0.419435
0.423732
0.424628
-0.470217
-0.460176
-0.421733
-0.362786
-0.294042
-0.219105
-0.138893
-0.054177
0.0340308
0.124341
0.210513
0.278931
0.326897
0.361241
0.38629
0.404842
0.418457
0.42743
0.431712
0.432516
-0.495551
-0.485473
-0.446245
-0.385713
-0.314857
-0.23743
-0.154352
-0.0663706
0.0255024
0.11986
0.210199
0.282032
0.332241
0.367977
0.393842
0.412826
0.426634
0.43562
0.439864
0.440644
-0.520074
-0.509868
-0.46982
-0.407959
-0.3352
-0.255567
-0.169917
-0.0789674
0.0163103
0.114561
0.209074
0.284482
0.337207
0.374588
0.401471
0.421041
0.435144
0.444196
0.448323
0.449091
-0.543949
-0.533541
-0.492828
-0.429661
-0.35521
-0.273607
-0.185641
-0.0919964
0.006427
0.10837
0.207001
0.286184
0.341742
0.381082
0.409209
0.429527
0.444021
0.45317
0.457186
0.457911
-0.567207
-0.556603
-0.515299
-0.450879
-0.374931
-0.29157
-0.201544
-0.10548
-0.0041974
0.101189
0.203894
0.287052
0.345755
0.387387
0.417031
0.438276
0.453258
0.462523
0.466406
0.467019
-0.589986
-0.579126
-0.537162
-0.471653
-0.39438
-0.309464
-0.217619
-0.119411
-0.0155565
0.0930324
0.199683
0.286933
0.349115
0.393412
0.42489
0.447254
0.462795
0.472158
0.475868
0.476341
-0.612196
-0.601087
-0.558505
-0.491989
-0.413529
-0.327246
-0.233805
-0.133724
-0.0275866
0.0839088
0.194293
0.285678
0.351621
0.399016
0.43272
0.456431
0.472574
0.481955
0.485424
0.485731
-0.633853
-0.622485
-0.579277
-0.511852
-0.432333
-0.344857
-0.250037
-0.148332
-0.0402148
0.0738437
0.187687
0.283144
0.353046
0.403977
0.440428
0.465831
0.482596
0.491799
0.494872
0.494997
-0.654815
-0.643246
-0.599424
-0.531185
-0.450733
-0.362219
-0.266237
-0.163154
-0.0533613
0.0629167
0.179857
0.279204
0.353158
0.408014
0.447864
0.475544
0.493008
0.501646
0.504
0.503895
-0.675168
-0.663319
-0.61892
-0.549955
-0.468686
-0.379282
-0.282308
-0.1781
-0.0669179
0.0512309
0.170838
0.273767
0.35171
0.41074
0.454707
0.485669
0.504334
0.51184
0.512658
0.512143
-0.694786
-0.682662
-0.637737
-0.568106
-0.486108
-0.395958
-0.298164
-0.193043
-0.0807601
0.0388746
0.160709
0.266787
0.348507
0.41169
0.460349
0.496011
0.517462
0.523895
0.52153
0.519406
-0.71369
-0.701337
-0.655823
-0.585587
-0.50296
-0.412181
-0.31372
-0.207895
-0.094768
0.0260055
0.149588
0.258248
0.343416
0.410406
0.463781
0.505527
0.5326
0.541032
0.535263
0.524067
-0.731816
-0.719283
-0.673287
-0.602544
-0.519447
-0.428231
-0.329315