/*--------------------------------*- C++ -*----------------------------------*\
  =========                 |
  \\      /  F ield         | OpenFOAM: The Open Source CFD Toolbox
   \\    /   O peration     | Website:  https://openfoam.org
    \\  /    A nd           | Version:  9
     \\/     M anipulation  |
\*---------------------------------------------------------------------------*/
FoamFile
{
    format      ascii;
    class       volScalarField;
    location    "47";
    object      p;
}
// * * * * * * * * * * * * * * * * * * * * * * * * * * * * * * * * * * * * * //

dimensions      [0 2 -2 0 0 0 0];

internalField   nonuniform List<scalar> 
8800
(
0.852966
0.805178
0.766486
0.737488
0.71662
0.701782
0.691177
0.683686
0.678852
0.676775
0.678021
0.682193
0.688824
0.698129
0.7109
0.728628
0.753401
0.787339
0.829886
0.888588
0.684221
0.6919
0.69937
0.702676
0.701169
0.696086
0.689593
0.683505
0.678768
0.675907
0.675605
0.678089
0.68256
0.688491
0.69525
0.701522
0.705158
0.704419
0.698994
0.690301
0.662634
0.668793
0.672918
0.675857
0.6779
0.678497
0.677381
0.675263
0.673229
0.6723
0.673237
0.675597
0.678378
0.680545
0.681141
0.679934
0.677586
0.674188
0.669628
0.665866
0.656844
0.659493
0.662241
0.664638
0.666266
0.667418
0.668147
0.668249
0.667934
0.667859
0.668583
0.669728
0.670546
0.670594
0.669971
0.668869
0.667045
0.664468
0.662061
0.660557
0.65149
0.652913
0.654687
0.656713
0.658488
0.659818
0.660793
0.661571
0.662162
0.662696
0.663314
0.66378
0.663852
0.663543
0.662828
0.661566
0.659859
0.658002
0.65669
0.655859
0.646448
0.647367
0.648603
0.650161
0.651783
0.653294
0.654562
0.655606
0.656542
0.657399
0.658048
0.658337
0.658262
0.657795
0.656891
0.655673
0.65433
0.653059
0.652231
0.651681
0.641585
0.642254
0.64321
0.644502
0.645898
0.64734
0.648759
0.650055
0.651219
0.652282
0.653052
0.653371
0.653244
0.652699
0.651862
0.65089
0.649858
0.648919
0.648328
0.647924
0.636855
0.637371
0.638149
0.639268
0.64053
0.641885
0.643306
0.644746
0.646132
0.647413
0.648356
0.648764
0.648683
0.64825
0.647607
0.646849
0.646047
0.645346
0.644906
0.64459
0.632191
0.632601
0.63325
0.634244
0.635432
0.636736
0.638152
0.639669
0.64124
0.642769
0.643934
0.644511
0.644602
0.64437
0.643934
0.643376
0.64277
0.642254
0.641923
0.641667
0.627508
0.627842
0.628402
0.629315
0.630452
0.631738
0.633182
0.634788
0.63653
0.638328
0.639783
0.640626
0.64097
0.640969
0.640744
0.640393
0.639968
0.639605
0.639357
0.639144
0.622723
0.623
0.623498
0.624363
0.62548
0.626785
0.628294
0.630026
0.631978
0.634083
0.635907
0.637099
0.637745
0.638006
0.63801
0.637863
0.637616
0.637385
0.637204
0.637021
0.61775
0.617982
0.61844
0.61929
0.620425
0.621793
0.62341
0.625322
0.627547
0.630036
0.632312
0.63392
0.634919
0.635478
0.635733
0.635793
0.63572
0.635607
0.635481
0.63532
0.612506
0.612702
0.613141
0.614003
0.6152
0.616675
0.618454
0.620612
0.62319
0.626164
0.628991
0.631092
0.632499
0.633394
0.633928
0.634201
0.63431
0.634309
0.634229
0.634083
0.606897
0.607065
0.607501
0.608405
0.609703
0.611335
0.613343
0.615827
0.618857
0.62244
0.625935
0.628623
0.630508
0.631786
0.632632
0.633165
0.633452
0.633553
0.633511
0.633376
0.600813
0.600957
0.601404
0.602379
0.603825
0.605672
0.607982
0.610882
0.614477
0.618809
0.623117
0.626515
0.628971
0.630702
0.631903
0.63271
0.633199
0.633408
0.633404
0.633276
0.594129
0.594246
0.594719
0.595797
0.597441
0.599575
0.602275
0.605703
0.610005
0.615252
0.620552
0.624805
0.627942
0.630204
0.631818
0.63294
0.633654
0.633976
0.634006
0.633881
0.586679
0.586772
0.587287
0.588501
0.5904
0.592895
0.596094
0.600196
0.605389
0.611771
0.618271
0.62354
0.627477
0.630368
0.632478
0.633963
0.634927
0.635366
0.63543
0.635305
0.578241
0.578336
0.578902
0.58027
0.582498
0.585465
0.589303
0.594255
0.600555
0.608331
0.616281
0.622767
0.627653
0.63128
0.633982
0.635898
0.637143
0.63771
0.637807
0.637679
0.568535
0.56861
0.569263
0.570847
0.573497
0.577067
0.58171
0.587729
0.595408
0.604897
0.614597
0.622533
0.628549
0.633054
0.636446
0.638869
0.64044
0.641147
0.641277
0.641142
0.557189
0.557245
0.557992
0.559887
0.56308
0.567425
0.573103
0.580481
0.589883
0.601459
0.613271
0.62293
0.630273
0.635814
0.640001
0.643027
0.644967
0.645825
0.645986
0.645841
0.543674
0.543716
0.544608
0.546907
0.550817
0.556184
0.563219
0.572357
0.583949
0.598106
0.612416
0.624067
0.63294
0.639683
0.644809
0.648525
0.650873
0.651887
0.652075
0.651916
0.527235
0.527264
0.528369
0.531242
0.536138
0.542891
0.551731
0.563149
0.577477
0.594752
0.612027
0.626012
0.636652
0.644775
0.650987
0.655491
0.658286
0.659457
0.659663
0.659485
0.506774
0.506801
0.508237
0.51196
0.518268
0.526966
0.538289
0.552738
0.570555
0.591613
0.612313
0.62891
0.641533
0.651204
0.65862
0.664027
0.667292
0.668606
0.668817
0.668617
0.480514
0.480561
0.482576
0.487692
0.496201
0.507783
0.522618
0.541105
0.563284
0.58882
0.613414
0.632904
0.647692
0.659073
0.667798
0.674168
0.677892
0.679313
0.679505
0.679277
0.445429
0.445577
0.448788
0.456482
0.468733
0.484718
0.504556
0.528342
0.555864
0.586588
0.615486
0.638084
0.655155
0.668336
0.678505
0.685832
0.689942
0.691397
0.691536
0.691278
0.395768
0.39673
0.403147
0.416162
0.434937
0.457753
0.484509
0.515014
0.54886
0.585368
0.618827
0.644609
0.663997
0.67899
0.690595
0.698774
0.703115
0.704498
0.704557
0.704267
0.322604
0.329808
0.344723
0.36772
0.396228
0.428193
0.463413
0.501666
0.542554
0.585388
0.623822
0.653109
0.675077
0.692132
0.705302
0.714322
0.718874
0.720212
0.720233
0.719978
0.243683
0.260758
0.284974
0.318593
0.35726
0.398547
0.44235
0.488611
0.537018
0.586968
0.631413
0.665189
0.690537
0.710203
0.725385
0.735343
0.739947
0.741137
0.74119
0.741058
0.177979
0.198124
0.230072
0.272644
0.320285
0.370363
0.422486
0.476591
0.532362
0.589223
0.639414
0.677397
0.705863
0.727888
0.744609
0.755087
0.759598
0.760892
0.761035
0.760982
0.124161
0.145976
0.183426
0.232399
0.287104
0.344579
0.404064
0.465369
0.528063
0.591498
0.647133
0.689043
0.720354
0.744434
0.76251
0.773806
0.779015
0.780243
0.780386
0.780375
0.0792605
0.102266
0.143501
0.197558
0.257955
0.321533
0.387327
0.455023
0.524034
0.593583
0.654306
0.699874
0.733804
0.759852
0.779353
0.791649
0.797283
0.798576
0.798779
0.798798
0.0410029
0.0646998
0.108783
0.166882
0.232054
0.30082
0.37209
0.445456
0.520203
0.595396
0.660859
0.709804
0.746149
0.773963
0.794692
0.807806
0.813888
0.815426
0.815715
0.815765
0.00738382
0.0315548
0.0779115
0.139315
0.208522
0.281791
0.357914
0.436385
0.516388
0.596833
0.66672
0.718791
0.75731
0.786653
0.808389
0.8221
0.828549
0.830433
0.830792
0.830843
-0.0230622
0.00152855
0.0497524
0.113988
0.186669
0.263876
0.344342
0.427464
0.512334
0.597711
0.671776
0.726757
0.767237
0.797922
0.820462
0.834597
0.841367
0.843474
0.843865
0.843901
-0.0512597
-0.0262782
0.0235717
0.0902137
0.165961
0.246655
0.331019
0.418396
0.507809
0.597867
0.675941
0.733704
0.776011
0.807849
0.830915
0.845345
0.852306
0.854568
0.854985
0.855
-0.0779747
-0.0525593
-0.00120493
0.0675367
0.146003
0.229808
0.317693
0.408979
0.502644
0.597179
0.67917
0.739691
0.78378
0.816613
0.84008
0.854647
0.861735
0.86412
0.864522
0.864505
-0.103529
-0.077673
-0.0251701
0.0456429
0.126521
0.213115
0.304188
0.399071
0.496722
0.595572
0.681465
0.744799
0.790679
0.824452
0.848279
0.862972
0.870133
0.872526
0.87293
0.872882
-0.128318
-0.101889
-0.0483212
0.0243051
0.107333
0.196433
0.290399
0.388586
0.489969
0.592992
0.68283
0.749095
0.796835
0.831556
0.855727
0.870517
0.877678
0.880021
0.880406
0.880342
-0.152457
-0.12558
-0.0708295
0.00338902
0.0883398
0.179687
0.276268
0.377484
0.482354
0.589416
0.683265
0.75263
0.802359
0.838091
0.862635
0.877488
0.884598
0.886871
0.887175
0.887064
-0.176052
-0.148625
-0.0928383
-0.0171751
0.0695037
0.162857
0.261788
0.365755
0.473865
0.584821
0.682743
0.755417
0.807338
0.844215
0.869175
0.88404
0.890972
0.893089
0.893303
0.893146
-0.199217
-0.17119
-0.114404
-0.0374108
0.0508099
0.145954
0.246988
0.353436
0.464524
0.579192
0.681214
0.75743
0.811836
0.850065
0.875473
0.890234
0.896865
0.898732
0.898846
0.898659
-0.221953
-0.193245
-0.135516
-0.0573048
0.0322983
0.129018
0.231921
0.340579
0.45437
0.57252
0.678619
0.758604
0.815864
0.855777
0.881711
0.896181
0.902294
0.903825
0.903835
0.90363
-0.244098
-0.21475
-0.156117
-0.0768191
0.0140101
0.112121
0.216653
0.327265
0.443471
0.564834
0.674891
0.758837
0.819374
0.861466
0.888158
0.902135
0.90737
0.90839
0.908285
0.908079
-0.265627
-0.235673
-0.176189
-0.0958999
-0.00399148
0.0953277
0.201281
0.313578
0.431909
0.556164
0.669981
0.757995
0.822245
0.867163
0.895156
0.908599
0.912416
0.912506
0.912209
0.912055
-0.286604
-0.255972
-0.195699
-0.114512
-0.0216418
0.078723
0.185893
0.299623
0.41978
0.546576
0.663844
0.755935
0.824269
0.87272
0.902966
0.916418
0.918396
0.916622
0.915709
0.915816
-0.306851
-0.275621
-0.214588
-0.132588
-0.0388793
0.0623906
0.170586
0.285513
0.407201
0.536167
0.656473
0.752497
0.825159
0.877728
0.911421
0.92649
0.927446
0.922944
0.919868
0.919253
-0.326462
-0.294611
-0.232872
-0.150155
-0.0557365
0.0462852
0.155301
0.271187
0.3941
0.524858
0.647731
0.747407
0.824587
0.881588
0.9197
0.938855
0.941703
0.936105
0.927135
0.912283
-0.34536
-0.312929
-0.250672
-0.167413
-0.0725045
0.03007
0.13962
0.256159
0.379935
0.512006
0.636961
0.73986
0.821926
0.883417
0.925769
0.950666
0.956411
0.944765
0.925396
0.912351
-0.363365
-0.330714
-0.267791
-0.184133
-0.0888539
0.0140933
0.123771
0.240757
0.365016
0.497876
0.624259
0.729436
0.816468
0.882081
0.92506
0.949577
0.958755
0.936866
0.868535
0.83753
-0.379815
-0.349198
-0.283894
-0.199749
-0.104039
-0.0011394
0.108061
0.225207
0.34956
0.482596
0.609578
0.715878
0.806948
0.877009
0.912899
0.930873
0.924473
0.872001
0.802731
0.759979
-0.436215
-0.365484
-0.298612
-0.215331
-0.119628
-0.0170724
0.0924251
0.20923
0.333203
0.465721
0.592336
0.698639
0.789705
0.866539
0.872621
0.879334
0.834703
0.766604
0.690531
0.648085
-0.397566
-0.381332
-0.320477
-0.236875
-0.142405
-0.0399871
0.0685258
0.184692
0.307674
0.43867
0.563026
0.667209
0.749995
0.830021
0.820526
0.71151
0.608355
0.536542
0.463812
0.495639
-0.429083
-0.39944
-0.337564
-0.25472
-0.160195
-0.058004
0.0507845
0.166325
0.288264
0.417451
0.538889
0.638771
0.713124
0.755286
0.708503
0.56323
0.43747
0.347311
0.249007
0.300305
-0.453429
-0.42084
-0.357678
-0.27458
-0.179957
-0.0778492
0.0308827
0.145619
0.266205
0.393012
0.510692
0.604561
0.669934
0.678754
0.57441
0.403359
0.252027
0.134243
0.00349577
0.0369989
-0.477291
-0.443142
-0.378776
-0.294763
-0.199953
-0.097945
0.0103092
0.124129
0.243185
0.367263
0.480321
0.567188
0.617146
0.594983
0.438679
0.243661
0.0540687
-0.113474
-0.302213
-0.319501
-0.500533
-0.465953
-0.400676
-0.315873
-0.220825
-0.118977
-0.0113191
0.101477
0.218762
0.339758
0.44756
0.527037
0.558449
0.500608
0.309614
0.100107
-0.116841
-0.30616
-0.548728
-0.849947
-0.524085
-0.489508
-0.423672
-0.338336
-0.243032
-0.14129
-0.0341486
0.0776047
0.193034
0.310728
0.413054
0.484193
0.495934
0.387323
0.197497
-0.0115387
-0.215514
-0.38778
-0.456348
-0.53696
-0.548878
-0.514266
-0.448117
-0.362502
-0.267081
-0.165529
-0.0589876
0.0515657
0.164844
0.278749
0.375238
0.435666
0.42303
0.280783
0.0981439
-0.0919863
-0.254221
-0.346688
-0.370635
-0.386682
-0.575236
-0.54054
-0.474186
-0.388461
-0.293104
-0.191905
-0.086194
0.0228725
0.133604
0.243111
0.333276
0.380243
0.350028
0.18201
0.00822059
-0.156817
-0.282872
-0.321685
-0.33473
-0.33601
-0.603364
-0.568497
-0.501939
-0.4162
-0.321046
-0.22042
-0.115785
-0.00852548
0.0992449
0.203811
0.286832
0.319833
0.271202
0.0906946
-0.0741042
-0.221847
-0.29807
-0.314944
-0.316264
-0.316051
-0.633313
-0.598163
-0.531394
-0.445709
-0.350917
-0.251061
-0.147763
-0.0426442
0.0617738
0.16092
0.235929
0.257508
0.173453
0.00721381
-0.149554
-0.271346
-0.307632
-0.306183
-0.305197
-0.304595
-0.664791
-0.629428
-0.56244
-0.476897
-0.382624
-0.283769
-0.182094
-0.0794606
0.0212144
0.11454
0.181419
0.187026
0.0837064
-0.0706511
-0.209279
-0.284979
-0.29506
-0.297387
-0.297965
-0.297573
-0.697222
-0.661736
-0.594821
-0.509534
-0.415975
-0.318382
-0.218627
-0.118847
-0.0222831
0.0649839
0.12366
0.114857
0.00304174
-0.137068
-0.253248
-0.283808
-0.29237
-0.293913
-0.293523
-0.293041
-0.73015
-0.694564
-0.628051
-0.543218
-0.450615
-0.354575
-0.257082
-0.160525
-0.0684743
0.0129019
0.0617819
0.0469814
-0.070636
-0.192774
-0.284637
-0.300338
-0.291789
-0.290271
-0.28999
-0.289631
-0.76269
-0.727269
-0.661268
-0.577306
-0.485992
-0.391863
-0.297008
-0.204034
-0.116907
-0.0412306
-0.00154877
-0.0148737
-0.13251
-0.240092
-0.293341
-0.299794
-0.29295
-0.287539
-0.285498
-0.284957
-0.793235
-0.758612
-0.693512
-0.610875
-0.521322
-0.429527
-0.337737
-0.248722
-0.16679
-0.0969831
-0.0597592
-0.08424
-0.176322
-0.278008
-0.303806
-0.306495
-0.294696
-0.283688
-0.279602
-0.278155
-0.820238
-0.786634
-0.723647
-0.642767
-0.555542
-0.466593
-0.378377
-0.293738
-0.217097
-0.153651
-0.11567
-0.153003
-0.20474
-0.261082
-0.329663
-0.310319
-0.299554
-0.295301
-0.29271
-0.290882
-0.841573
-0.809747
-0.749469
-0.671519
-0.587312
-0.50188
-0.41778
-0.337993
-0.266863
-0.210285
-0.174393
-0.219359
-0.220754
-0.179918
-0.225112
-0.290205
-0.343828
-0.366051
-0.366254
-0.363174
-0.855009
-0.825881
-0.769268
-0.695187
-0.615055
-0.533951
-0.454616
-0.380137
-0.315007
-0.266022
-0.232677
-0.303832
-0.306825
-0.158605
-0.212262
-0.369155
-0.4651
-0.488561
-0.484739
-0.483978
-0.857865
-0.832781
-0.78097
-0.711905
-0.636961
-0.561178
-0.487275
-0.418573
-0.360012
-0.319084
-0.288019
-0.430426
-0.643816
-0.733625
-0.678584
-0.632178
-0.592779
-0.56833
-0.559106
-0.558934
-0.848223
-0.82789
-0.782392
-0.720018
-0.651434
-0.581853
-0.514013
-0.451348
-0.399631
-0.367248
-0.352399
-0.558964
-0.928159
-1.52889
-1.45417
-0.970915
-0.691274
-0.596926
-0.571646
-0.564458
-0.823788
-0.808246
-0.771709
-0.718152
-0.657258
-0.594654
-0.533076
-0.476141
-0.430228
-0.403855
-0.405731
-0.507186
-0.655793
-0.936428
-0.984343
-0.638145
-0.43501
-0.375626
-0.365014
-0.362427
-0.78661
-0.77643
-0.74935
-0.706307
-0.654191
-0.598993
-0.543316
-0.490975
-0.447485
-0.421679
-0.406684
-0.279108
0.063301
0.550107
0.636605
0.341706
0.0268892
-0.090469
-0.109838
-0.100734
-0.7427
-0.736919
-0.719789
-0.686998
-0.643981
-0.595452
-0.54484
-0.494748
-0.451066
-0.42097
-0.405377
-0.227817
0.0805084
0.36564
0.225544
-0.154477
-0.265345
-0.234465
-0.179664
-0.190783
-0.701065
-0.697667
-0.688837
-0.665354
-0.629577
-0.586319
-0.538817
-0.489353
-0.441536
-0.407889
-0.403237
-0.434039
-0.68379
-1.1882
-1.72404
-2.13187
-2.1111
-1.86358
-1.58719
-1.41846
-0.668778
-0.666652
-0.662108
-0.646195
-0.615825
-0.57507
-0.527931
-0.475209
-0.420696
-0.369607
-0.345118
-0.416476
-0.769193
-1.24872
-1.58425
-1.58834
-1.37637
-1.09046
-0.861536
-0.753523
-0.642351
-0.64149
-0.640064
-0.631344
-0.605664
-0.56555
-0.515393
-0.457193
-0.390858
-0.312797
-0.235278
-0.159308
-0.167853
-0.118747
0.00790823
0.217663
0.533956
0.801614
0.963278
1.02199
-0.625567
-0.625058
-0.624518
-0.620564
-0.599878
-0.55873
-0.503849
-0.437293
-0.358106
-0.261279
-0.136331
0.0392962
0.257855
0.569233
0.961418
1.41216
1.79879
2.05045
2.17341
2.21019
-0.614657
-0.614343
-0.613813
-0.612677
-0.597026
-0.5556
-0.495487
-0.421063
-0.330083
-0.21863
-0.0824515
0.0555792
0.296715
0.717906
1.26306
1.75959
2.13532
2.35138
2.44644
2.47089
-0.607877
-0.607143
-0.605398
-0.604484
-0.595697
-0.557719
-0.492879
-0.410676
-0.31238
-0.197925
-0.0687168
0.0695199
0.245081
0.643557
1.11549
1.54401
1.85613
2.02744
2.09945
2.11665
-0.61355
-0.610621
-0.60493
-0.603205
-0.602969
-0.569036
-0.496283
-0.404871
-0.302588
-0.187827
-0.0698779
0.0507843
0.173085
0.459588
0.829965
1.14125
1.37293
1.49743
1.54881
1.56037
-0.64673
-0.643901
-0.643224
-0.646803
-0.646648
-0.595427
-0.502917
-0.398539
-0.29256
-0.181554
-0.0778328
0.0185679
0.107377
0.300221
0.552546
0.766
0.921424
1.00492
1.03918
1.04605
-0.69755
-0.703952
-0.719505
-0.727159
-0.705943
-0.620224
-0.500566
-0.384015
-0.277905
-0.176379
-0.0908768
-0.0179843
0.0436407
0.18034
0.347094
0.48296
0.579515
0.630277
0.650538
0.65408
-0.684329
-0.69685
-0.71708
-0.723202
-0.689282
-0.588121
-0.463835
-0.351314
-0.255117
-0.169593
-0.102902
-0.0525426
-0.0102477
0.0801297
0.190998
0.280067
0.337452
0.366688
0.379192
0.380851
-0.529395
-0.541688
-0.55792
-0.562065
-0.532874
-0.459456
-0.374851
-0.292851
-0.219329
-0.154246
-0.106137
-0.0751417
-0.0490677
0.0205208
0.0905588
0.14284
0.177399
0.195253
0.20228
0.202721
-0.291699
-0.29785
-0.307553
-0.315577
-0.309978
-0.287512
-0.254121
-0.214296
-0.172167
-0.130264
-0.101614
-0.0895613
-0.0814257
-0.0285286
0.0259306
0.0621951
0.0814621
0.0897233
0.0925985
0.0925859
-0.086746
-0.0896764
-0.0973768
-0.111032
-0.12793
-0.140363
-0.143706
-0.137212
-0.122262
-0.101903
-0.0877949
-0.0855214
-0.0829917
-0.0461557
-0.0103827
0.0132784
0.0266082
0.0324781
0.0344848
0.0342404
0.0349193
0.0331344
0.0261496
0.009822
-0.0157036
-0.0426675
-0.0638323
-0.0756725
-0.0773019
-0.070756
-0.0635361
-0.0625758
-0.0586989
-0.0315746
-0.00775743
0.00444523
0.00886469
0.0102724
0.0107439
0.0104284
0.085783
0.0844648
0.0785747
0.0638405
0.0397248
0.0121774
-0.0127563
-0.0311469
-0.0406242
-0.0407085
-0.0347831
-0.0283783
-0.0201526
0.000172401
0.0100405
0.0141008
0.0149062
0.0151046
0.0153237
0.0147911
0.0966304
0.0956641
0.0912938
0.0801325
0.0614212
0.0388091
0.0164566
-0.00197206
-0.0134445
-0.0152196
-0.0063305
0.00901212
0.0270985
0.0390373
0.0384074
0.0357963
0.0339845
0.0339967
0.0334107
0.0326152
0.0896325
0.0890009
0.086048
0.0783272
0.065012
0.048135
0.0304363
0.0150087
0.00486376
0.00387002
0.0159311
0.0387193
0.0625589
0.0675109
0.0608211
0.0557453
0.0544654
0.0543745
0.0542002
0.0530614
0.0760253
0.075657
0.0737793
0.0687035
0.0596592
0.0477268
0.0345738
0.0225343
0.0143572
0.0141444
0.0272908
0.0514305
0.075299
0.0751446
0.0670936
0.0640855
0.0644671
0.0663227
0.0663039
0.0648685
0.060651
0.0604762
0.0593257
0.0560938
0.050119
0.0418938
0.0324199
0.023312
0.0166363
0.0159974
0.0265488
0.0461317
0.0632674
0.0594647
0.0535739
0.0540346
0.0578244
0.0608873
0.0610227
0.0595218
0.0456378
0.0455126
0.0448313
0.0428482
0.0390039
0.033417
0.0265979
0.0194596
0.0133321
0.0106115
0.0152067
0.0253956
0.0326019
0.0266981
0.0244391
0.0279883
0.0331428
0.0359952
0.0360594
0.0348104
0.0320379
0.0319399
0.0315157
0.0303136
0.0278696
0.0240566
0.0189868
0.0129977
0.00654161
0.000449841
-0.00345263
-0.00588404
-0.0104372
-0.017548
-0.0163754
-0.00884323
-0.00247447
-4.0651e-05
-2.60835e-06
-0.000913358
0.0204617
0.0203656
0.020061
0.0193462
0.0178265
0.0151849
0.0112186
0.00575707
-0.00152467
-0.011448
-0.0246364
-0.0405057
-0.0587098
-0.0665718
-0.0580435
-0.0474628
-0.0408415
-0.0388551
-0.0387184
-0.0391806
0.0114135
0.0112995
0.0110556
0.0105941
0.00963528
0.00773423
0.00446519
-0.000723124
-0.00882775
-0.0220612
-0.0429555
-0.0717683
-0.096309
-0.100024
-0.088185
-0.0769364
-0.0716965
-0.0701134
-0.0698266
-0.0700047
0.0050427
0.00491069
0.00468898
0.0043452
0.00372243
0.00225547
-0.000514359
-0.00527298
-0.0135187
-0.0283817
-0.0533363
-0.0859551
-0.116147
-0.11398
-0.100424
-0.0908851
-0.0876905
-0.0872629
-0.0868845
-0.0868485
0.00119491
0.0010832
0.000883041
0.000610078
0.000115655
-0.00101627
-0.00328876
-0.00748584
-0.0149512
-0.0289632
-0.0533215
-0.0860114
-0.108562
-0.102775
-0.0921858
-0.086701
-0.086366
-0.0868453
-0.086427
-0.0862902
-0.000597762
-0.000703351
-0.00087366
-0.00109139
-0.00144546
-0.00224635
-0.00390769
-0.00709766
-0.0129042
-0.0239748
-0.0429048
-0.0669447
-0.0802392
-0.0739215
-0.0676405
-0.0672201
-0.0685529
-0.0693677
-0.0691337
-0.0691107
-0.000887184
-0.000973553
-0.00109288
-0.00121144
-0.00140991
-0.00185346
-0.00282582
-0.00466487
-0.00805962
-0.0145847
-0.0252604
-0.0376719
-0.0424113
-0.037009
-0.0368012
-0.0381653
-0.0399396
-0.0405672
-0.0405098
-0.0406898
-9.46107e-05
-0.000120652
-0.000132923
-0.000195081
-0.000292641
-0.000329006
-0.000425423
-0.000661452
-0.00118198
-0.0020185
-0.00351795
-0.00561109
-0.00711133
-0.00628253
-0.00809574
-0.01011
-0.0112109
-0.0102026
-0.00958573
-0.0091323
-0.0709968
0.0971479
0.293788
0.465293
0.602701
0.711365
0.801446
0.877964
0.91259
0.889282
0.234974
0.356657
0.487615
0.600951
0.696646
0.775975
0.840198
0.885737
0.908538
0.920571
0.455933
0.539453
0.628959
0.708137
0.776282
0.833309
0.878642
0.911742
0.935635
0.953583
0.618041
0.677693
0.740073
0.797612
0.84771
0.890247
0.925171
0.953015
0.97591
0.99419
0.7444
0.787877
0.834165
0.878284
0.91726
0.951291
0.980408
1.00463
1.02508
1.04291
0.849281
0.882372
0.920701
0.956449
0.989253
1.01865
1.04432
1.0659
1.08379
1.10114
0.942181
0.970997
1.00511
1.03738
1.06743
1.0947
1.11852
1.1383
1.15383
1.17091
1.03098
1.06027
1.09436
1.12648
1.15616
1.1828
1.20571
1.22424
1.23763
1.25466
1.12643
1.15969
1.19638
1.23001
1.2601
1.28632
1.3083
1.3256
1.33749
1.35489
1.2415
1.27936
1.31804
1.35231
1.38168
1.40645
1.42685
1.44275
1.45423
1.4723
1.38649
1.42505
1.46122
1.49192
1.51761
1.53972
1.55879
1.57433
1.58677
1.60476
1.5616
1.59323
1.61942
1.64188
1.66187
1.6806
1.69832
1.71481
1.73016
1.74823
1.75024
1.76744
1.78248
1.79872
1.81463
1.82917
1.84238
1.85631
1.87385
1.89401
1.93196
1.9415
1.95305
1.96386
1.97315
1.98273
1.99352
2.00489
2.01625
2.03161
2.13921
2.14287
2.12793
2.11312
2.10684
2.11252
2.131
2.16131
2.19349
2.22015
2.44553
2.31066
2.23403
2.19165
2.17423
2.17819
2.20559
2.26201
2.36463
2.58899
0.743566
0.741436
0.736952
0.728324
0.716095
0.70396
0.693723
0.685814
0.680179
0.676902
0.676518
0.679227
0.684307
0.691511
0.700885
0.712415
0.725059
0.736089
0.742199
0.745251
0.668027
0.673873
0.680205
0.684693
0.687158
0.686827
0.68408
0.680257
0.676728
0.674443
0.674265
0.67643
0.680067
0.684335
0.688127
0.689999
0.689055
0.685567
0.6804
0.673779
0.659615
0.661911
0.665312
0.668303
0.670372
0.67186
0.672603
0.672271
0.671226
0.670315
0.670455
0.671846
0.673632
0.674914
0.675077
0.674172
0.672613
0.670269
0.667
0.664077
0.654123
0.655209
0.657039
0.659411
0.661427
0.662844
0.663851
0.664585
0.664963
0.665154
0.665604
0.66637
0.666933
0.666971
0.666536
0.66567
0.664187
0.662093
0.66
0.658614
0.648944
0.649607
0.650712
0.65241
0.654182
0.655802
0.657081
0.658076
0.65893
0.659682
0.660364
0.660866
0.661017
0.660815
0.66022
0.659143
0.657698
0.656141
0.654814
0.654032
0.643999
0.64446
0.645243
0.646533
0.648009
0.649512
0.650958
0.652231
0.653333
0.654344
0.655201
0.655708
0.6558
0.655482
0.654749
0.653731
0.652582
0.651433
0.650507
0.649987
0.63921
0.639555
0.640162
0.641222
0.642503
0.64386
0.645277
0.646694
0.648027
0.649253
0.650292
0.650908
0.651018
0.650686
0.650042
0.649228
0.648347
0.647459
0.646773
0.646393
0.634523
0.634791
0.635281
0.636181
0.637336
0.638613
0.639981
0.641435
0.642928
0.644383
0.645644
0.64642
0.646637
0.646445
0.645994
0.645386
0.644698
0.64403
0.643523
0.643233
0.62986
0.630073
0.63048
0.631268
0.632342
0.633567
0.634921
0.636415
0.638029
0.639706
0.641233
0.642244
0.642677
0.642705
0.642467
0.642064
0.64157
0.641086
0.640715
0.640487
0.625136
0.625308
0.625656
0.626371
0.627396
0.628597
0.629973
0.631541
0.633298
0.635209
0.637052
0.638389
0.639117
0.639407
0.639399
0.639207
0.638909
0.638586
0.638328
0.638147
0.620268
0.620407
0.620713
0.621383
0.622389
0.62361
0.625047
0.62673
0.62868
0.630878
0.633106
0.634852
0.635934
0.636527
0.636778
0.636806
0.636698
0.63653
0.636365
0.636219
0.615171
0.615283
0.615561
0.616211
0.617233
0.61852
0.620061
0.621913
0.624124
0.626688
0.629395
0.631632
0.633129
0.634068
0.634608
0.63487
0.634955
0.634938
0.634855
0.634737
0.609757
0.609846
0.610107
0.610761
0.611836
0.61323
0.61493
0.617019
0.61957
0.622606
0.625905
0.628728
0.630713
0.632049
0.63291
0.633445
0.633738
0.633861
0.633849
0.633753
0.603925
0.603992
0.604246
0.604927
0.606093
0.607642
0.609563
0.611966
0.614947
0.618571
0.622596
0.62613
0.628697
0.630501
0.631731
0.632564
0.633086
0.633358
0.633413
0.633336
0.597556
0.597603
0.597858
0.598589
0.599885
0.601643
0.603857
0.606662
0.61019
0.614544
0.619456
0.62385
0.627115
0.629472
0.631132
0.6323
0.633085
0.633516
0.633638
0.633576
0.590511
0.590539
0.590798
0.5916
0.59307
0.5951
0.59769
0.601008
0.605226
0.610479
0.616475
0.621911
0.626013
0.629025
0.631193
0.632749
0.633834
0.634439
0.634627
0.634579
0.582603
0.582619
0.582877
0.583779
0.585475
0.587844
0.59092
0.594898
0.59999
0.606373
0.613695
0.620371
0.625453
0.629232
0.632001
0.63403
0.635452
0.636244
0.636502
0.636465
0.573544
0.573527
0.573846
0.574879
0.576857
0.579671
0.583368
0.588171
0.594349
0.602119
0.611054
0.619228
0.625489
0.630182
0.633663
0.636255
0.638068
0.639072
0.639401
0.639374
0.56306
0.563017
0.563379
0.564601
0.566938
0.570324
0.57481
0.580666
0.588213
0.597701
0.608597
0.618562
0.626212
0.631985
0.636306
0.639548
0.641819
0.64306
0.643466
0.643445
0.550678
0.550608
0.551046
0.552509
0.555321
0.559455
0.564965
0.572175
0.581463
0.593089
0.60636
0.618451
0.627722
0.634753
0.640068
0.644064
0.64686
0.648361
0.648844
0.648826
0.535767
0.535668
0.536225
0.538033
0.541482
0.546621
0.553495
0.562486
0.574006
0.588293
0.604415
0.618983
0.630138
0.638616
0.645081
0.64995
0.653336
0.655113
0.655669
0.655649
0.517417
0.517289
0.518039
0.520347
0.524686
0.531214
0.539946
0.551301
0.565683
0.583243
0.602766
0.62022
0.63353
0.643671
0.651443
0.65731
0.661358
0.663423
0.664041
0.664011
0.494226
0.49408
0.495159
0.498245
0.503928
0.512496
0.52388
0.53848
0.556602
0.578218
0.601717
0.622398
0.638074
0.650044
0.659253
0.666239
0.670987
0.673328
0.673984
0.673933
0.46386
0.463735
0.465418
0.469862
0.47781
0.489565
0.50484
0.523884
0.546767
0.573241
0.601294
0.625577
0.643832
0.657769
0.668541
0.676744
0.682173
0.684736
0.68539
0.685305
0.422194
0.422231
0.425258
0.432556
0.444695
0.46167
0.482719
0.507769
0.536617
0.568795
0.601898
0.629982
0.650911
0.666881
0.67928
0.688707
0.69471
0.697367
0.697959
0.69783
0.361534
0.362716
0.37016
0.383814
0.403646
0.428934
0.458117
0.490817
0.526718
0.565262
0.603731
0.635721
0.659333
0.677301
0.691273
0.701756
0.708164
0.710703
0.711125
0.710955
0.289189
0.290941
0.305223
0.32878
0.359422
0.394537
0.432626
0.473532
0.517061
0.562707
0.607503
0.644435
0.671661
0.692353
0.70833
0.720126
0.72695
0.729484
0.729927
0.729864
0.214389
0.220538
0.241657
0.27536
0.316312
0.360997
0.40798
0.45716
0.50842
0.561303
0.612635
0.654718
0.685682
0.709311
0.727587
0.740637
0.747629
0.749869
0.750137
0.750149
0.153252
0.16168
0.187402
0.22811
0.27707
0.329905
0.384903
0.441819
0.500451
0.560304
0.617893
0.664833
0.699257
0.725443
0.745533
0.759626
0.766723
0.768988
0.769595
0.769689
0.103478
0.112498
0.141771
0.1877
0.242759
0.302159
0.363927
0.427671
0.493026
0.559383
0.62287
0.674359
0.711987
0.740532
0.762325
0.777518
0.785282
0.78812
0.788853
0.788974
0.0616866
0.0709931
0.102726
0.152654
0.212696
0.277547
0.345044
0.414747
0.48613
0.558453
0.627419
0.683145
0.723731
0.754448
0.777917
0.794188
0.802828
0.806065
0.806915
0.807034
0.0255194
0.0349529
0.068548
0.121674
0.185826
0.255317
0.327807
0.40278
0.479607
0.557412
0.631483
0.691141
0.734446
0.767106
0.791971
0.809192
0.818516
0.822092
0.823063
0.823189
-0.00667032
0.00282008
0.0378497
0.0936846
0.161285
0.234765
0.311666
0.391376
0.473181
0.556075
0.634932
0.698268
0.74405
0.778442
0.80446
0.822426
0.832286
0.836202
0.837207
0.837334
-0.0361257
-0.0265743
0.00963018
0.0678019
0.138382
0.215351
0.296165
0.380164
0.466556
0.554224
0.637626
0.70445
0.75254
0.788473
0.815449
0.833907
0.844148
0.848282
0.849334
0.849446
-0.063673
-0.0540615
-0.0167921
0.0433699
0.116609
0.196666
0.280976
0.36887
0.45951
0.551687
0.639458
0.709673
0.759997
0.797344
0.825071
0.84381
0.85421
0.858519
0.859658
0.85975
-0.0898562
-0.0801511
-0.0418904
0.0199657
0.0956003
0.178404
0.265862
0.357308
0.451887
0.548337
0.640361
0.713964
0.766535
0.805235
0.833585
0.852578
0.863073
0.867457
0.868581
0.868666
-0.115128
-0.10523
-0.0661205
-0.00263709
0.0751066
0.160366
0.250665
0.34535
0.443588
0.544093
0.640303
0.71737
0.772259
0.812314
0.84126
0.860466
0.871053
0.875419
0.876503
0.876517
-0.139705
-0.129572
-0.089683
-0.0246284
0.0549744
0.142429
0.23529
0.332931
0.434549
0.538913
0.639269
0.719918
0.777259
0.818728
0.848291
0.867692
0.878305
0.882616
0.883642
0.883652
-0.163675
-0.153316
-0.112576
-0.0461584
0.0351204
0.124545
0.219702
0.320021
0.424754
0.532764
0.637232
0.721619
0.781597
0.824612
0.85486
0.874461
0.885043
0.889221
0.890148
0.890116
-0.187166
-0.176486
-0.134991
-0.067279
0.0155114
0.106694
0.203902
0.306634
0.414214
0.525652
0.634161
0.722443
0.785309
0.830084
0.861126
0.880884
0.891318
0.895279
0.896053
0.895968
-0.210145
-0.19917
-0.15691
-0.0880091
-0.00384689
0.0888992
0.187935
0.292818
0.402969
0.517585
0.630023
0.722324
0.788386
0.835238
0.867237
0.887084
0.897179
0.900777
0.901373
0.901242
-0.23265
-0.221353
-0.178282
-0.108314
-0.0229218
0.071203
0.171851
0.278641
0.391083
0.508598
0.624786
0.721183
0.790761
0.840128
0.873385
0.893268
0.902748
0.905768
0.906138
0.90597
-0.254498
-0.242951
-0.199097
-0.128146
-0.0416563
0.0536858
0.155726
0.264181
0.378637
0.498756
0.618433
0.718926
0.792324
0.844741
0.879781
0.89981
0.908306
0.910348
0.910366
0.910169
-0.275824
-0.26392
-0.21933
-0.14748
-0.0600141
0.0363924
0.139654
0.249525
0.365725
0.488144
0.610975
0.715447
0.792909
0.848939
0.886537
0.907254
0.914529
0.914886
0.914118
0.913867
-0.296459
-0.28423
-0.238946
-0.166264
-0.0779124
0.0194101
0.12372
0.234796
0.35246
0.47683
0.602456
0.710653
0.792315
0.852444
0.893501
0.916118
0.922753
0.92073
0.917972
0.916845
-0.31646
-0.303922
-0.257887
-0.18444
-0.0953097
0.00281074
0.108009
0.220077
0.338955
0.464953
0.592949
0.704459
0.790323
0.854836
0.900054
0.926241
0.934421
0.931256
0.924487
0.915564
-0.335742
-0.322952
-0.27625
-0.202166
-0.112417
-0.013688
0.0921811
0.204958
0.324752
0.451995
0.581905
0.696275
0.786383
0.855627
0.905313
0.93656
0.949592
0.947728
0.937576
0.9311
-0.35425
-0.341236
-0.294027
-0.219401
-0.129228
-0.0300868
0.0762537
0.189422
0.309807
0.437844
0.569139
0.68574
0.779766
0.854033
0.90711
0.942168
0.957807
0.960775
0.923253
0.870892
-0.371696
-0.357984