/*--------------------------------*- C++ -*----------------------------------*\
  =========                 |
  \\      /  F ield         | OpenFOAM: The Open Source CFD Toolbox
   \\    /   O peration     | Website:  https://openfoam.org
    \\  /    A nd           | Version:  9
     \\/     M anipulation  |
\*---------------------------------------------------------------------------*/
FoamFile
{
    format      ascii;
    class       volVectorField;
    location    "47";
    object      U;
}
// * * * * * * * * * * * * * * * * * * * * * * * * * * * * * * * * * * * * * //

dimensions      [0 1 -1 0 0 0 0];

internalField   nonuniform List<vector> 
8800
(
(0.980145 -0.0915213 0)
(1.00234 -0.0587281 0)
(0.999589 -0.0321291 0)
(0.999984 -0.0165222 0)
(1.00007 -0.00884006 0)
(1.00007 -0.00509373 0)
(1.00004 -0.00299432 0)
(1.00002 -0.00168734 0)
(0.999998 -0.000787965 0)
(1.00006 -9.23732e-05 0)
(0.999987 0.000612821 0)
(0.999995 0.00136438 0)
(1.00001 0.0023893 0)
(1.00002 0.00399761 0)
(1.00003 0.00674908 0)
(0.999989 0.0120513 0)
(0.999787 0.0230959 0)
(0.999029 0.0431586 0)
(1.00723 0.0790271 0)
(0.775023 0.0478395 0)
(0.35898 -0.0147489 0)
(1.04649 -0.0724893 0)
(1.08847 -0.0660282 0)
(1.04944 -0.0509243 0)
(1.02553 -0.037706 0)
(1.01272 -0.0259005 0)
(1.00655 -0.0167103 0)
(1.00362 -0.0102273 0)
(1.00218 -0.0055983 0)
(1.00151 -0.00200706 0)
(1.00138 0.0012021 0)
(1.00173 0.00450742 0)
(1.0027 0.00839559 0)
(1.00473 0.0137141 0)
(1.00897 0.0213992 0)
(1.01795 0.0318958 0)
(1.03578 0.0446697 0)
(1.0674 0.0581112 0)
(1.0947 0.0699633 0)
(0.845632 0.0555071 0)
(0.217775 -0.00138155 0)
(1.07566 -0.0506622 0)
(1.0994 -0.0489474 0)
(1.06437 -0.0400341 0)
(1.03988 -0.0325773 0)
(1.02378 -0.0253669 0)
(1.014 -0.0181551 0)
(1.0085 -0.0115382 0)
(1.00565 -0.00578462 0)
(1.00448 -0.000496768 0)
(1.00479 0.00461075 0)
(1.00663 0.00989463 0)
(1.01056 0.0158672 0)
(1.01788 0.0226333 0)
(1.03049 0.0297444 0)
(1.05048 0.0368338 0)
(1.08002 0.0446093 0)
(1.10564 0.0519355 0)
(0.943269 0.0410095 0)
(0.2172 0.00140497 0)
(0.176623 -0.000629179 0)
(1.01937 -0.0354734 0)
(1.10569 -0.0414259 0)
(1.07795 -0.0364154 0)
(1.05242 -0.0303753 0)
(1.03519 -0.0245041 0)
(1.02334 -0.0187161 0)
(1.01553 -0.012722 0)
(1.01094 -0.00663013 0)
(1.0089 -0.000397469 0)
(1.00944 0.00575415 0)
(1.01251 0.0116647 0)
(1.01846 0.0174348 0)
(1.02805 0.0230189 0)
(1.04226 0.028578 0)
(1.06308 0.0343635 0)
(1.09385 0.04025 0)
(1.09442 0.0417768 0)
(0.830209 0.0227752 0)
(0.175639 0.000647898 0)
(0.154704 -0.000463108 0)
(0.958118 -0.0257038 0)
(1.10436 -0.0351399 0)
(1.08804 -0.0327005 0)
(1.06121 -0.0282018 0)
(1.04317 -0.0232472 0)
(1.03079 -0.0179518 0)
(1.02221 -0.0124147 0)
(1.01667 -0.0065125 0)
(1.01402 -6.5917e-05 0)
(1.01467 0.00638911 0)
(1.01845 0.0122552 0)
(1.02523 0.0175739 0)
(1.03536 0.022593 0)
(1.05011 0.0274269 0)
(1.07205 0.0318746 0)
(1.101 0.0357547 0)
(1.06969 0.0339651 0)
(0.742569 0.0144494 0)
(0.153233 0.000484121 0)
(0.14001 -0.000335035 0)
(0.901066 -0.0193423 0)
(1.09674 -0.0302545 0)
(1.09616 -0.0293906 0)
(1.0689 -0.0256192 0)
(1.05007 -0.0215434 0)
(1.03712 -0.0168535 0)
(1.02815 -0.0116144 0)
(1.02222 -0.00590494 0)
(1.01924 0.000438377 0)
(1.01987 0.00680394 0)
(1.02387 0.0124482 0)
(1.03089 0.0174343 0)
(1.04139 0.0219124 0)
(1.05677 0.0258646 0)
(1.07957 0.0293921 0)
(1.10332 0.0321161 0)
(1.03794 0.0281181 0)
(0.675797 0.0103 0)
(0.137939 0.000360017 0)
(0.129258 -0.000253673 0)
(0.851137 -0.014949 0)
(1.08435 -0.026165 0)
(1.10181 -0.0265317 0)
(1.0757 -0.0232274 0)
(1.05635 -0.0195887 0)
(1.04299 -0.0154075 0)
(1.03365 -0.0105609 0)
(1.02745 -0.00508127 0)
(1.02426 0.00106964 0)
(1.02478 0.00721387 0)
(1.02881 0.0125734 0)
(1.03598 0.0171402 0)
(1.04677 0.0210251 0)
(1.06253 0.0243782 0)
(1.08578 0.0274275 0)
(1.10258 0.0292593 0)
(1.00331 0.0235636 0)
(0.62382 0.00789322 0)
(0.126457 0.00028411 0)
(0.121056 -0.000194974 0)
(0.808572 -0.0117675 0)
(1.06898 -0.0225809 0)
(1.10528 -0.0239201 0)
(1.08189 -0.0210751 0)
(1.0621 -0.0176674 0)
(1.04847 -0.0137752 0)
(1.03888 -0.00926601 0)
(1.03242 -0.00407649 0)
(1.02901 0.00183154 0)
(1.02938 0.00770169 0)
(1.03337 0.012704 0)
(1.0406 0.0168135 0)
(1.05151 0.0202289 0)
(1.06752 0.0231856 0)
(1.09116 0.0259254 0)
(1.09896 0.0268524 0)
(0.968319 0.0199714 0)
(0.582159 0.00631982 0)
(0.117368 0.000232023 0)
(0.114689 -0.000150533 0)
(0.772653 -0.00938774 0)
(1.05204 -0.0194283 0)
(1.10757 -0.0215129 0)
(1.0877 -0.0190558 0)
(1.0675 -0.0158172 0)
(1.05362 -0.0121061 0)
(1.04385 -0.00781008 0)
(1.03716 -0.00287288 0)
(1.03351 0.00275428 0)
(1.03369 0.00829668 0)
(1.03757 0.0129119 0)
(1.04475 0.0166202 0)
(1.05568 0.0196664 0)
(1.07194 0.0222929 0)
(1.0953 0.0246953 0)
(1.09259 0.0248351 0)
(0.934326 0.0171754 0)
(0.547816 0.00523487 0)
(0.10992 0.000195506 0)
(0.109709 -0.00011543 0)
(0.742457 -0.00754386 0)
(1.0346 -0.0166305 0)
(1.10887 -0.0192517 0)
(1.09318 -0.0171274 0)
(1.0727 -0.0140048 0)
(1.05854 -0.010403 0)
(1.04859 -0.00624483 0)
(1.0417 -0.0014991 0)
(1.03779 0.00386285 0)
(1.03772 0.00907457 0)
(1.0414 0.0133202 0)
(1.04846 0.0166684 0)
(1.0594 0.0193836 0)
(1.07588 0.0217127 0)
(1.09818 0.0237381 0)
(1.08383 0.0231425 0)
(0.901948 0.015021 0)
(0.518749 0.00446835 0)
(0.103627 0.000170038 0)
(0.105824 -8.64276e-05 0)
(0.717168 -0.00605869 0)
(1.01749 -0.0141158 0)
(1.1093 -0.0170561 0)
(1.09854 -0.0152241 0)
(1.07779 -0.0121299 0)
(1.06334 -0.00858749 0)
(1.05317 -0.00452596 0)
(1.04606 7.90705e-05 0)
(1.04186 0.0051992 0)
(1.04146 0.0100787 0)
(1.04487 0.0139676 0)
(1.05176 0.0169605 0)
(1.0627 0.0193402 0)
(1.0794 0.0214083 0)
(1.09974 0.0230528 0)
(1.07311 0.0217662 0)
(0.871351 0.0133966 0)
(0.493517 0.00392959 0)
(0.0981448 0.00015316 0)
(0.102841 -6.16447e-05 0)
(0.696139 -0.00481457 0)
(1.00133 -0.0118188 0)
(1.10902 -0.0149091 0)
(1.10373 -0.0133114 0)
(1.08285 -0.010218 0)
(1.06807 -0.0066782 0)
(1.05765 -0.00264103 0)
(1.05026 0.00187691 0)
(1.04569 0.00680227 0)
(1.04491 0.0113828 0)
(1.048 0.0149304 0)
(1.05468 0.0175862 0)
(1.06559 0.0196444 0)
(1.08246 0.021444 0)
(1.10034 0.0226615 0)
(1.06074 0.0207055 0)
(0.842423 0.0122019 0)
(0.471055 0.00355881 0)
(0.0932182 0.000142813 0)
(0.100638 -3.90035e-05 0)
(0.678896 -0.00372281 0)
(0.986573 -0.00967001 0)
(1.1082 -0.0127079 0)
(1.10866 -0.011255 0)
(1.08794 -0.00813759 0)
(1.07282 -0.0045487 0)
(1.06209 -0.00049462 0)
(1.05434 0.00396843 0)
(1.04934 0.00874384 0)
(1.04808 0.0130517 0)
(1.05078 0.0162552 0)
(1.05722 0.018557 0)
(1.06809 0.0202795 0)
(1.08505 0.0217881 0)
(1.09994 0.0226609 0)
(1.04692 0.0199583 0)
(0.814904 0.0113661 0)
(0.450545 0.00331825 0)
(0.0886512 0.000137754 0)
(0.0991514 -1.65467e-05 0)
(0.665141 -0.00271279 0)
(0.973596 -0.0075946 0)
(1.10719 -0.0104 0)
(1.11351 -0.00900512 0)
(1.09315 -0.00582493 0)
(1.07763 -0.00213274 0)
(1.06653 0.00199317 0)
(1.05835 0.00645374 0)
(1.05279 0.0111016 0)
(1.05096 0.0151247 0)
(1.05319 0.0179703 0)
(1.05934 0.0198907 0)
(1.07016 0.021251 0)
(1.08718 0.0224942 0)
(1.09842 0.0229453 0)
(1.03179 0.0195192 0)
(0.78844 0.0108305 0)
(0.431333 0.00318184 0)
(0.0842871 0.000137078 0)
(0.0983643 7.53975e-06 0)
(0.654744 -0.00173108 0)
(0.962723 -0.00551428 0)
(1.10629 -0.00791604 0)
(1.11839 -0.00651444 0)
(1.09854 -0.00325352 0)
(1.0826 0.000603859 0)
(1.07106 0.0048726 0)
(1.06234 0.0093957 0)
(1.05612 0.0139642 0)
(1.05358 0.0177313 0)
(1.05524 0.0202164 0)
(1.06105 0.0217587 0)
(1.07176 0.0227138 0)
(1.08876 0.0236204 0)
(1.09571 0.0235873 0)
(1.01539 0.0193914 0)
(0.762666 0.0105562 0)
(0.412897 0.00313187 0)
(0.0800004 0.000139865 0)
(0.0983035 2.89573e-05 0)
(0.647695 -0.000728211 0)
(0.954274 -0.00335439 0)
(1.10584 -0.00517037 0)
(1.1234 -0.00364582 0)
(1.10418 -0.00023539 0)
(1.08778 0.00385138 0)
(1.07572 0.00830784 0)
(1.06635 0.01294 0)
(1.05931 0.0174546 0)
(1.05591 0.0209466 0)
(1.05689 0.0230236 0)
(1.06227 0.0241146 0)
(1.07287 0.0246341 0)
(1.0896 0.0251718 0)
(1.09158 0.0246029 0)
(0.997675 0.0196 0)
(0.737166 0.0105304 0)
(0.394765 0.00316335 0)
(0.0756758 0.000146247 0)
(0.0990009 6.67985e-05 0)
(0.644062 0.000303943 0)
(0.948561 -0.00105051 0)
(1.10621 -0.00209602 0)
(1.12879 -0.000327501 0)
(1.11019 0.00331435 0)
(1.09327 0.00769644 0)
(1.08056 0.0124125 0)
(1.0704 0.0172145 0)
(1.06235 0.0217016 0)
(1.05791 0.0249068 0)
(1.05807 0.0265448 0)
(1.06295 0.0271429 0)
(1.07341 0.0271762 0)
(1.08958 0.027275 0)
(1.08591 0.0260708 0)
(0.978515 0.0201761 0)
(0.711479 0.0107433 0)
(0.376494 0.00327108 0)
(0.0712052 0.000155964 0)
(0.100663 9.42645e-05 0)
(0.644259 0.00148045 0)
(0.945939 0.00149152 0)
(1.10779 0.00141022 0)
(1.13473 0.00349774 0)
(1.11667 0.0074658 0)
(1.09916 0.0122537 0)
(1.08569 0.0173426 0)
(1.07453 0.0223887 0)
(1.06525 0.0268793 0)
(1.05956 0.0297762 0)
(1.05873 0.0309046 0)
(1.06299 0.0309599 0)
(1.07328 0.0304757 0)
(1.08846 0.0300466 0)
(1.07855 0.0280086 0)
(0.957671 0.0211246 0)
(0.685135 0.0111902 0)
(0.357666 0.00345034 0)
(0.0664885 0.000168438 0)
(0.103361 0.000142183 0)
(0.64866 0.00293449 0)
(0.946907 0.0044147 0)
(1.11108 0.00548825 0)
(1.14137 0.0080814 0)
(1.12378 0.0125304 0)
(1.10561 0.0178157 0)
(1.09119 0.0233434 0)
(1.07882 0.0286885 0)
(1.06803 0.0331898 0)
(1.06081 0.035719 0)
(1.05882 0.0362532 0)
(1.06231 0.0356719 0)
(1.07235 0.0345963 0)
(1.08604 0.0335542 0)
(1.0692 0.0305239 0)
(0.934859 0.0225175 0)
(0.657609 0.0118872 0)
(0.337861 0.00370476 0)
(0.0614317 0.000183903 0)
(0.107363 0.000202808 0)
(0.65779 0.00461729 0)
(0.951935 0.0078564 0)
(1.11663 0.0102652 0)
(1.14907 0.013581 0)
(1.1317 0.0187011 0)
(1.1127 0.0245941 0)
(1.09713 0.0306628 0)
(1.08327 0.0363729 0)
(1.07066 0.0408736 0)
(1.06161 0.0429438 0)
(1.05823 0.0427808 0)
(1.06078 0.041452 0)
(1.0705 0.0396852 0)
(1.08225 0.0379465 0)
(1.05757 0.0337431 0)
(0.90964 0.0243968 0)
(0.628316 0.012846 0)
(0.316639 0.00403248 0)
(0.0559393 0.000201548 0)
(0.113 0.000285811 0)
(0.672315 0.00672163 0)
(0.961669 0.0120101 0)
(1.12494 0.0159912 0)
(1.15815 0.0201974 0)
(1.14069 0.0261614 0)
(1.12064 0.0328547 0)
(1.1036 0.0396321 0)
(1.08784 0.045766 0)
(1.07296 0.0502286 0)
(1.06177 0.051727 0)
(1.05679 0.0507183 0)
(1.05827 0.0485176 0)
(1.06757 0.0459565 0)
(1.07697 0.0433648 0)
(1.04322 0.037741 0)
(0.881501 0.0268146 0)
(0.596611 0.0140726 0)
(0.293555 0.00442689 0)
(0.0499313 0.000220286 0)
(0.120764 0.000401612 0)
(0.693228 0.0094643 0)
(0.977004 0.0172039 0)
(1.13662 0.0230386 0)
(1.16902 0.0284232 0)
(1.15103 0.0355192 0)
(1.12965 0.0432028 0)
(1.11071 0.0507744 0)
(1.0926 0.0573079 0)
(1.07502 0.0615795 0)
(1.06126 0.0622876 0)
(1.05437 0.060247 0)
(1.05465 0.0570403 0)
(1.06343 0.0535595 0)
(1.06984 0.0500157 0)
(1.02564 0.0426619 0)
(0.849792 0.0298359 0)
(0.561765 0.0155651 0)
(0.268186 0.00487357 0)
(0.0433564 0.000238204 0)
(0.131439 0.000575782 0)
(0.72187 0.0132017 0)
(0.999029 0.0238643 0)
(1.15253 0.0319003 0)
(1.18234 0.0388278 0)
(1.1631 0.0474332 0)
(1.13984 0.056258 0)
(1.11842 0.0646389 0)
(1.09733 0.0714577 0)
(1.07647 0.0752957 0)
(1.05979 0.0749153 0)
(1.05078 0.0715692 0)
(1.04971 0.0672051 0)
(1.05789 0.0626305 0)
(1.06052 0.0578964 0)
(1.0042 0.0486651 0)
(0.813705 0.0335135 0)
(0.522992 0.0173108 0)
(0.240162 0.00534635 0)
(0.036216 0.000251938 0)
(0.146273 0.000850872 0)
(0.760163 0.0185336 0)
(1.0293 0.0327507 0)
(1.17354 0.0434446 0)
(1.1989 0.0523385 0)
(1.17717 0.0627854 0)
(1.15124 0.0728968 0)
(1.12655 0.0820242 0)
(1.10179 0.0888315 0)
(1.07711 0.0917813 0)
(1.05716 0.0898683 0)
(1.0458 0.0849173 0)
(1.04327 0.0791665 0)
(1.05049 0.0733821 0)
(1.04842 0.0673496 0)
(0.978078 0.0558351 0)
(0.772337 0.0378878 0)
(0.479478 0.0192663 0)
(0.209242 0.00580501 0)
(0.0285889 0.000257739 0)
(0.167395 0.00132409 0)
(0.811237 0.0266219 0)
(1.0704 0.0454298 0)
(1.20068 0.0595437 0)
(1.21929 0.0710975 0)
(1.19345 0.0832099 0)
(1.16375 0.0944685 0)
(1.13484 0.103873 0)
(1.10564 0.110019 0)
(1.0766 0.111414 0)
(1.05308 0.107429 0)
(1.03929 0.100532 0)
(1.03524 0.0932252 0)
(1.04106 0.086219 0)
(1.03296 0.0785327 0)
(0.946312 0.0642068 0)
(0.724721 0.0429091 0)
(0.430596 0.0213305 0)
(0.175517 0.00619117 0)
(0.020662 0.000251927 0)
(0.198167 0.00237756 0)
(0.8807 0.0402163 0)
(1.12569 0.0657594 0)
(1.23439 0.083733 0)
(1.24327 0.0979218 0)
(1.21134 0.111204 0)
(1.17652 0.122674 0)
(1.14234 0.131226 0)
(1.10802 0.13561 0)
(1.07426 0.134456 0)
(1.04709 0.127679 0)
(1.03092 0.118395 0)
(1.0255 0.109291 0)
(1.02954 0.101035 0)
(1.01349 0.0913934 0)
(0.907659 0.0735984 0)
(0.669973 0.0482941 0)
(0.3766 0.0233488 0)
(0.140054 0.00647088 0)
(0.0128663 0.000230515 0)
(0.240105 0.00858088 4.73051e-20)
(0.972531 0.0674026 4.12826e-20)
(1.19297 0.0998679 -1.44122e-20)
(1.2718 0.119573 0)
(1.26827 0.13638 -3.65754e-34)
(1.22882 0.149043 5.34186e-21)
(1.18804 0.15895 -9.59534e-21)
(1.14806 0.165268 0)
(1.10826 0.166868 1.96219e-34)
(1.06943 0.1624 -1.17962e-20)
(1.03827 0.152353 0)
(1.01942 0.140449 -1.39595e-20)
(1.01247 0.129546 -4.11416e-20)
(1.01457 0.120315 -1.9434e-20)
(0.987587 0.108939 -5.84251e-21)
(0.857589 0.0864538 -3.47134e-21)
(0.602084 0.0551987 0)
(0.314967 0.0258377 2.43111e-21)
(0.103419 0.00723066 2.87104e-21)
(0.00556692 0.000326018 5.16771e-20)
(0.269431 0.0239499 3.48776e-20)
(1.04819 0.109904 5.22843e-22)
(1.24819 0.148574 3.86116e-21)
(1.30548 0.168397 0)
(1.29023 0.185008 -1.86587e-20)
(1.2437 0.195525 -2.11619e-20)
(1.19693 0.203164 -9.71029e-21)
(1.15101 0.20706 -3.44918e-20)
(1.10535 0.205913 0)
(1.06082 0.198286 5.03564e-20)
(1.02483 0.185117 4.98738e-20)
(1.00257 0.170753 1.482e-20)
(0.993159 0.1578 5.39334e-20)
(0.98997 0.146256 7.56897e-20)
(0.948344 0.131448 0)
(0.791443 0.102582 1.06746e-19)
(0.522918 0.0636288 1.5325e-19)
(0.250568 0.0287335 1.70275e-19)
(0.0684922 0.00759211 -1.94753e-19)
(-0.00126172 -2.48091e-05 -3.65871e-21)
(0.270476 0.0396447 0)
(1.09588 0.165104 6.21325e-21)
(1.28525 0.208535 0)
(1.33159 0.227858 -2.44862e-20)
(1.30735 0.241334 0)
(1.25485 0.248082 -4.1737e-20)
(1.20251 0.252147 1.98954e-20)
(1.15094 0.25261 -6.96186e-20)
(1.09967 0.247913 -1.56523e-21)
(1.04961 0.236536 2.61397e-20)
(1.00891 0.21983 1.09946e-19)
(0.983312 0.202743 -2.86061e-22)
(0.971337 0.187933 -3.92687e-20)
(0.963327 0.174609 -7.15954e-20)
(0.912139 0.156013 8.479e-20)
(0.744867 0.119982 -1.50191e-19)
(0.47997 0.0732719 -1.98734e-20)
(0.223987 0.0329011 0)
(0.056991 0.00825638 -4.75614e-25)
(-0.00348809 -0.000491913 0)
(0.264304 0.0532762 8.20751e-20)
(1.12158 0.223683 -3.99844e-20)
(1.30813 0.273162 -3.06324e-20)
(1.34873 0.292537 1.16114e-20)
(1.31823 0.302087 -1.95438e-20)
(1.2613 0.304486 8.7686e-20)
(1.20436 0.304345 4.16439e-20)
(1.14784 0.30075 0)
(1.09149 0.292006 -1.31452e-19)
(1.03629 0.276561 0)
(0.991122 0.256383 -5.78731e-20)
(0.962271 0.236791 -7.13587e-20)
(0.947807 0.220114 -4.28923e-20)
(0.935854 0.204525 -5.21332e-20)
(0.880234 0.182027 0)
(0.713264 0.139986 0)
(0.460292 0.086616 -1.29851e-19)
(0.220072 0.0403345 2.57072e-20)
(0.0584072 0.010445 -1.50444e-20)
(-0.00338398 -0.000681046 -1.75927e-20)
(0.257081 0.0653895 -3.32403e-20)
(1.13301 0.282193 0)
(1.32075 0.338848 6.29065e-20)
(1.35789 0.358757 3.28124e-20)
(1.32301 0.364461 4.52413e-20)
(1.26287 0.36252 0)
(1.20228 0.358054 4.08683e-20)
(1.14164 0.350214 7.73541e-20)
(1.0809 0.337276 6.74713e-20)
(1.02117 0.317746 1.23643e-19)
(0.971968 0.294128 0)
(0.939947 0.271978 -1.54262e-19)
(0.922654 0.253214 -9.2922e-20)
(0.907277 0.235357 -5.49236e-20)
(0.850245 0.209709 3.37843e-19)
(0.69043 0.162753 4.02407e-20)
(0.453419 0.103588 1.89244e-19)
(0.22714 0.0507635 -8.95499e-19)
(0.0673976 0.0148701 5.30708e-19)
(-0.00100283 -0.000276972 -6.39587e-19)
(0.250258 0.0763817 -1.63631e-20)
(1.13541 0.338789 6.07095e-21)
(1.32596 0.403652 -6.82592e-21)
(1.36073 0.424548 -3.33677e-20)
(1.32264 0.426694 -3.83026e-20)
(1.2601 0.42057 1.78175e-21)
(1.19659 0.411905 -4.43175e-20)
(1.13258 0.399902 8.01623e-20)
(1.06811 0.382862 -1.45391e-19)
(1.00442 0.359249 0)
(0.951543 0.33189 -6.99343e-20)
(0.916547 0.306752 -1.61957e-21)
(0.896549 0.285881 -1.01794e-19)
(0.87873 0.266693 0)
(0.821425 0.238536 -7.3306e-20)
(0.671028 0.18754 -1.74358e-19)
(0.451405 0.122674 4.66766e-19)
(0.237569 0.0636524 -4.59296e-19)
(0.0789883 0.0211636 6.52382e-19)
(0.00236 0.00063648 -6.77889e-19)
(0.244625 0.0865996 -4.10626e-22)
(1.13223 0.392806 -2.13359e-21)
(1.32584 0.466541 -1.88112e-20)
(1.35869 0.488677 1.33769e-20)
(1.31818 0.487667 -1.92944e-20)
(1.25379 0.477616 0)
(1.18793 0.464992 -4.13141e-20)
(1.1211 0.449061 -8.39977e-20)
(1.05345 0.428108 -7.5628e-20)
(0.986182 0.400421 0)
(0.929881 0.369148 -7.26678e-20)
(0.892193 0.341106 -8.99913e-20)
(0.87016 0.318666 1.10527e-19)
(0.850656 0.298529 -6.71961e-20)
(0.793395 0.267518 -3.2049e-19)
(0.65232 0.212732 1.91129e-19)
(0.449194 0.142958 5.72014e-20)
(0.247084 0.0778558 0)
(0.0899264 0.0285169 -6.31888e-19)
(0.00576919 0.00189439 -2.31803e-20)
(0.240248 0.0963502 8.64193e-22)
(1.1257 0.444039 -4.84838e-22)
(1.32186 0.527018 8.74971e-21)
(1.35298 0.550437 4.78443e-20)
(1.31054 0.546659 -7.10795e-20)
(1.24471 0.533032 8.37265e-20)
(1.17694 0.516769 8.89742e-20)
(1.10777 0.497225 -1.34224e-19)
(1.0373 0.4726 4.66532e-20)
(0.966739 0.44095 -3.04547e-19)
(0.907264 0.406026 -8.21903e-20)
(0.867283 0.375691 0)
(0.843692 0.352177 1.19891e-19)
(0.822364 0.330498 1.43755e-19)
(0.764707 0.295963 1.72409e-19)
(0.633061 0.237424 -2.07765e-19)
(0.444488 0.163609 -6.15728e-20)
(0.252694 0.0924998 7.23952e-20)
(0.0981591 0.0361612 0)
(0.00866135 0.00329364 -5.03294e-20)
(0.237005 0.105787 -3.20189e-20)
(1.11734 0.492593 1.36253e-20)
(1.31529 0.585328 -7.64266e-21)
(1.34455 0.609494 2.88046e-20)
(1.30051 0.603263 -3.18905e-20)
(1.23355 0.586417 -4.05865e-21)
(1.16423 0.566908 -9.71718e-20)
(1.09307 0.544107 -4.85515e-20)
(1.02007 0.516065 -1.31416e-19)
(0.946452 0.480711 2.68986e-22)
(0.884119 0.442639 -2.57297e-19)
(0.842177 0.410494 2.17054e-19)
(0.817048 0.385645 -1.3168e-19)
(0.793427 0.36131 1.58454e-19)
(0.73532 0.3228 0)
(0.612234 0.261015 -1.12686e-19)
(0.43638 0.183426 -2.93261e-22)
(0.253513 0.106189 -3.15036e-19)
(0.102448 0.0430321 -4.63577e-20)
(0.0105555 0.00452958 0)
(0.23476 0.11503 0)
(1.10809 0.538674 1.81346e-20)
(1.30674 0.640784 -4.83504e-21)
(1.33413 0.665704 -2.60183e-20)
(1.28873 0.65728 -4.05849e-20)
(1.22088 0.637576 0)
(1.15032 0.615209 -4.40994e-20)
(1.07743 0.589499 -1.1229e-21)
(1.00212 0.558326 2.81464e-19)
(0.925686 0.519609 -4.18011e-20)
(0.860801 0.478805 -1.85722e-19)
(0.817037 0.444769 1.1284e-19)
(0.790041 0.417675 -2.15105e-21)
(0.763782 0.389627 1.68298e-19)
(0.705602 0.347004 1.0409e-19)
(0.590084 0.282348 -2.43288e-19)
(0.424904 0.200978 2.88292e-19)
(0.249716 0.117634 8.52883e-20)
(0.102551 0.0482698 3.51536e-19)
(0.0113486 0.00538546 -9.40505e-19)
(0.233454 0.124214 -1.52622e-20)
(1.09856 0.582476 1.77769e-20)
(1.29702 0.693336 -9.71987e-21)
(1.32229 0.719036 1.9572e-20)
(1.27574 0.70862 0)
(1.20719 0.68641 -3.82115e-20)
(1.13561 0.661559 1.47966e-19)
(1.06118 0.633258 1.06219e-19)
(0.983752 0.599242 0)
(0.904743 0.55752 -6.01381e-19)
(0.8375 0.514142 5.01709e-19)
(0.791852 0.477678 0)
(0.762629 0.447335 1.53582e-19)
(0.733687 0.415103 -2.13891e-21)
(0.675845 0.368918 -3.31906e-19)
(0.56646 0.301443 1.30082e-19)
(0.410251 0.215951 0)
(0.241743 0.126487 4.59747e-19)
(0.0994203 0.0515679 0)
(0.0112071 0.00577882 -4.44463e-19)
(0.23291 0.133409 1.97091e-20)
(1.08925 0.624099 2.70125e-20)
(1.28632 0.743069 -8.64729e-21)
(1.3095 0.769485 0)
(1.26196 0.757284 -3.38603e-20)
(1.19289 0.732897 0)
(1.12047 0.705882 -1.45795e-19)
(1.04465 0.675278 -4.92641e-20)
(0.96526 0.638718 4.95404e-20)
(0.883853 0.594316 -2.97297e-19)
(0.814289 0.548296 5.17686e-20)
(0.766581 0.508718 0)
(0.734919 0.474443 -3.27611e-19)
(0.703581 0.438127 2.1259e-21)
(0.646348 0.388884 0)
(0.541768 0.318274 1.80369e-21)
(0.392366 0.227847 4.19391e-19)
(0.229883 0.132247 -3.96849e-19)
(0.0933255 0.052863 1.16858e-19)
(0.0102442 0.00569807 0)
(0.232797 0.142477 0)
(1.08036 0.663673 3.51489e-20)
(1.27503 0.790128 1.86249e-20)
(1.29616 0.817097 -2.43698e-21)
(1.24774 0.803311 -1.09509e-20)
(1.17829 0.777039 -8.53277e-20)
(1.10516 0.748143 5.45699e-20)
(1.02807 0.715494 -5.80791e-20)
(0.946878 0.676685 2.20898e-19)
(0.863179 0.629894 -4.74315e-19)
(0.791198 0.581057 -3.58528e-21)
(0.741198 0.5378 -1.434e-19)
(0.707066 0.499289 5.3108e-19)
(0.673761 0.459168 -2.47982e-21)
(0.617142 0.406914 -2.56797e-19)
(0.515955 0.33239 -4.58964e-19)
(0.371745 0.236399 0)
(0.21468 0.134806 0)
(0.0849088 0.0522182 1.26187e-19)
(0.00882028 0.00527344 -7.39739e-20)
(0.233243 0.151545 3.07207e-20)
(1.07192 0.701029 -8.28537e-20)
(1.2635 0.834568 -2.02219e-20)
(1.28255 0.861955 0)
(1.23335 0.84676 -1.56874e-21)
(1.16363 0.818857 -7.75062e-20)
(1.08991 0.788326 1.31378e-19)
(1.01168 0.75387 2.28294e-19)
(0.928802 0.713116 2.86653e-19)
(0.842858 0.66419 -3.86922e-19)
(0.768274 0.612395 -4.29694e-19)
(0.71572 0.565133 3.83229e-19)
(0.679165 0.522317 0)
(0.644258 0.47853 -1.16458e-19)
(0.58802 0.422901 -2.77644e-19)
(0.489026 0.343642 -3.29285e-19)
(0.348789 0.241447 -3.90567e-19)
(0.196813 0.134175 1.15446e-19)
(0.0745868 0.0495889 -6.79096e-20)
(0.00700729 0.00447811 2.55158e-22)
(0.233797 0.160512 0)
(1.06411 0.736721 0)
(1.25191 0.876501 2.58943e-21)
(1.2689 0.904163 0)
(1.21901 0.887719 2.25593e-20)
(1.14912 0.858401 5.20052e-20)
(1.07489 0.826435 0)
(0.995629 0.790401 2.70139e-20)
(0.911197 0.747999 4.77434e-19)
(0.823013 0.697187 -8.88732e-19)
(0.745591 0.64241 0)
(0.690203 0.591056 -2.46228e-19)
(0.651235 0.543944 -2.99281e-21)
(0.614935 0.496384 -2.38721e-21)
(0.558816 0.436751 2.96295e-19)
(0.461135 0.351936 -3.21396e-22)
(0.323525 0.242897 -8.40031e-19)
(0.17684 0.130316 2.48144e-19)
(0.063429 0.0453705 7.33214e-20)
(0.00506333 0.00344754 0)
(0.234373 0.16931 -1.30478e-19)
(1.05664 0.770709 -6.04513e-20)
(1.24037 0.915986 -7.15178e-20)
(1.25537 0.943833 4.72992e-20)
(1.20489 0.926258 2.40185e-20)
(1.1349 0.895719 0)
(1.06025 0.862498 7.87809e-20)
(0.980068 0.825103 -6.00938e-20)
(0.89419 0.781346 3.86031e-21)
(0.803763 0.728904 6.53905e-20)
(0.723259 0.671271 5.55058e-19)
(0.66473 0.615939 -8.63112e-20)
(0.623243 0.564535 -3.26416e-19)
(0.585556 0.512792 -1.35346e-19)
(0.529326 0.448229 1.61034e-19)
(0.432449 0.356897 -1.34708e-22)
(0.297043 0.240563 2.26167e-19)
(0.156028 0.123636 -5.33373e-19)
(0.0521424 0.0399891 6.30438e-19)
(0.00313775 0.00228905 9.19258e-20)
(0.234805 0.177817 5.07444e-20)
(1.04952 0.803103 -3.49094e-20)
(1.22899 0.953132 6.25413e-21)
(1.24209 0.981085 3.74631e-20)
(1.1911 0.962482 1.7109e-21)
(1.12108 0.930871 -8.95391e-20)
(1.04609 0.896551 2.26496e-20)
(0.965104 0.858 -2.50044e-19)
(0.877892 0.813164 -5.24412e-19)
(0.785211 0.75936 -5.28399e-19)
(0.701415 0.699153 0)
(0.639404 0.640113 -3.7834e-19)
(0.595129 0.58441 4.69764e-19)
(0.555785 0.527792 0)
(0.49922 0.456981 -3.44466e-19)
(0.403101 0.357941 2.05774e-19)
(0.270222 0.234172 -2.42829e-19)
(0.135706 0.114554 -2.86798e-19)
(0.0416085 0.0339865 -5.07445e-19)
(0.00139547 0.00112708 -3.95601e-19)
(0.235543 0.186168 -5.85394e-20)
(1.04262 0.833878 3.73758e-20)
(1.21785 0.988018 8.3465e-20)
(1.22914 1.01601 5.90924e-20)
(1.17775 0.996476 1.31372e-22)
(1.10774 0.96393 -4.69408e-20)
(1.0325 0.928641 7.55532e-20)
(0.950816 0.889139 -2.56202e-19)
(0.862371 0.84348 -3.09944e-19)
(0.767461 0.788597 5.51851e-19)
(0.680198 0.726214 1.21637e-18)
(0.614354 0.66386 0)
(0.56684 0.603869 0)
(0.525215 0.541522 -1.55697e-19)
(0.467911 0.462667 0)
(0.372986 0.354158 4.42477e-19)
(0.244185 0.223011 5.2212e-19)
(0.117804 0.103238 0)
(0.03309 0.0279368 0)
(-1.19169e-05 0.000127428 4.24843e-19)
(0.235909 0.194055 6.7895e-20)
(1.03597 0.863022 5.45438e-20)
(1.20701 1.02077 6.13255e-20)
(1.21659 1.04873 -6.23265e-20)
(1.16488 1.02834 -7.36975e-21)
(1.09494 0.994966 4.62637e-20)
(1.01952 0.958829 -1.03138e-19)
(0.937261 0.918558 -5.30651e-23)
(0.847695 0.872311 -5.00835e-21)
(0.750598 0.81664 -5.2403e-21)
(0.659771 0.75257 6.25853e-19)
(0.589741 0.687391 0)
(0.538394 0.623213 4.74147e-19)
(0.49346 0.554281 3.31635e-19)
(0.434481 0.465247 8.0258e-19)
(0.341365 0.344407 2.37976e-19)
(0.219935 0.204935 -2.8113e-19)
(0.106116 0.0876061 -1.65094e-19)
(0.031543 0.0209921 0)
(0.00051845 -0.000127469 4.56196e-19)
(0.236559 0.201931 -1.55833e-19)
(1.02951 0.890626 0)
(1.19644 1.05143 7.51299e-20)
(1.20446 1.07933 -5.50206e-20)
(1.15255 1.05817 1.94898e-20)
(1.08272 1.02406 -4.57594e-20)
(1.00721 0.987174 1.98117e-19)
(0.924472 0.9463 -2.11984e-20)
(0.833895 0.899675 0)
(0.734695 0.843493 -6.07131e-19)
(0.640284 0.778281 -1.35809e-18)
(0.565758 0.710871 5.55847e-20)
(0.509924 0.642733 6.52224e-19)
(0.460285 0.566558 0)
(0.397772 0.465326 5.40939e-19)
(0.305979 0.328015 0)
(0.195749 0.175345 0)
(0.104212 0.0554046 -1.78619e-19)
(0.0569368 0.00220621 0)
(0.0279485 0.0115938 1.22204e-19)
(0.236818 0.20919 -1.76506e-19)
(1.02324 0.917039 0)
(1.18617 1.08021 1.27461e-19)
(1.19272 1.10806 0)
(1.14072 1.08622 -1.49108e-20)
(1.07101 1.05149 0)
(0.995507 1.014 9.47986e-21)
(0.912357 0.972716 3.4942e-20)
(0.820854 0.925943 3.86663e-20)
(0.719605 0.869569 -6.64885e-19)
(0.621597 0.803816 4.06926e-20)
(0.542228 0.73491 4.46775e-19)
(0.481091 0.663116 6.35544e-19)
(0.424898 0.579125 8.57436e-20)
(0.355893 0.464489 4.23462e-19)
(0.262202 0.306292 0)
(0.160192 0.131846 5.93026e-19)
(0.0839243 0.00119726 -3.4738e-19)
(0.0434547 0.0450329 4.0258e-19)
(-0.0690855 0.433663 -4.74719e-19)
(0.237046 0.21623 1.47561e-19)
(1.01689 0.942047 2.24214e-19)
(1.17609 1.10744 0)
(1.18123 1.13533 5.17187e-21)
(1.1292 1.11306 4.97333e-20)
(1.05957 1.07795 4.17227e-20)
(0.984103 1.0401 6.72806e-20)
(0.900519 0.998747 0)
(0.808057 0.952209 2.55625e-19)
(0.704677 0.896169 -3.46285e-20)
(0.602812 0.830617 0)
(0.517967 0.76119 0)
(0.450233 0.68601 5.67839e-19)
(0.385321 0.593093 -2.64736e-19)
(0.305761 0.465071 -4.28065e-19)
(0.205122 0.283754 0)
(0.0930783 0.127546 2.98638e-19)
(0.00546289 0.438958 -3.45785e-19)
(0.0344411 1.88439 -1.89455e-19)
(0.063994 2.80852 -2.42159e-19)
(0.237094 0.222419 -1.12435e-19)
(1.01067 0.965825 -2.90777e-19)
(1.16621 1.13309 7.7537e-20)
(1.16997 1.16102 5.98809e-20)
(1.11802 1.13847 0)
(1.04844 1.10315 1.73796e-20)
(0.973193 1.06517 8.96482e-20)
(0.889142 1.02397 -1.67761e-20)
(0.795759 0.97796 3.80829e-20)
(0.690283 0.9227 6.32004e-19)
(0.584526 0.858062 6.83598e-19)
(0.493936 0.789341 4.97855e-19)
(0.418297 0.711342 5.6955e-19)
(0.343274 0.607311 -6.19377e-19)
(0.253231 0.47017 -6.44776e-19)
(0.135823 0.316669 0)
(0.0473549 0.829295 0)
(0.10386 2.54775 1.64894e-19)
(0.104831 3.1989 0)
(0.107881 3.38714 3.94359e-19)
(0.239692 0.228053 0)
(1.00518 0.988557 0)
(1.15631 1.15702 0)
(1.15871 1.18492 1.89222e-20)
(1.10689 1.16221 4.79201e-20)
(1.03742 1.12694 -1.19223e-21)
(0.962676 1.08911 5.66234e-20)
(0.878183 1.04829 -1.62873e-20)
(0.783927 1.00307 3.17427e-19)
(0.676452 0.949039 -9.54557e-21)
(0.566896 0.886063 1.34756e-18)
(0.470488 0.819219 -5.72695e-20)
(0.385569 0.740061 6.88252e-20)
(0.301322 0.619321 8.93412e-20)
(0.190846 0.485908 -3.57087e-21)
(0.105537 0.961843 1.81138e-21)
(0.143732 2.71226 -8.62698e-19)
(0.152958 3.29098 -3.25025e-19)
(0.141173 3.42613 1.6842e-19)
(0.127709 3.44856 -1.8731e-19)
(0.157197 0.18432 6.77513e-20)
(0.994355 1.01301 0)
(1.14609 1.17947 -1.613e-19)
(1.148 1.20746 -1.66597e-19)
(1.09662 1.1851 1.26673e-19)
(1.02743 1.15002 6.76511e-21)
(0.952527 1.11197 -5.6914e-20)
(0.867769 1.07181 1.78257e-19)
(0.772731 1.02769 -2.58922e-19)
(0.663475 0.975356 0)
(0.550331 0.914828 6.60952e-19)
(0.448224 0.850713 -4.05003e-19)
(0.352478 0.775188 0)
(0.255542 0.632638 8.29009e-20)
(0.155619 0.783482 1.986e-19)
(0.158517 2.48047 -2.34264e-19)
(0.218757 3.32318 2.63446e-19)
(0.197589 3.4404 1.41951e-19)
(0.163987 3.462 1.60291e-19)
(0.141635 3.47228 2.54284e-19)
(0.28298 0.266815 -1.22777e-19)
(0.979263 1.02298 0)
(1.12802 1.20484 1.77734e-19)
(1.13338 1.23982 1.90391e-19)
(1.07987 1.21836 -1.49143e-19)
(1.01014 1.18362 -3.14113e-20)
(0.934336 1.147 4.76199e-20)
(0.849202 1.10809 1.39635e-20)
(0.752974 1.06606 2.45574e-19)
(0.640873 1.01697 5.42318e-19)
(0.522358 0.961845 3.71727e-20)
(0.410585 0.903737 3.58571e-19)
(0.293949 0.827453 6.39829e-20)
(0.216789 0.955073 -8.12486e-20)
(0.233053 2.32991 -1.85953e-19)
(0.29538 3.32673 1.78283e-19)
(0.278347 3.47114 -1.9697e-19)
(0.242456 3.49276 -1.14016e-19)
(0.204764 3.5203 -9.51849e-20)
(0.152907 3.51394 -1.12377e-20)
(0.270852 0.263619 0)
(0.977001 1.04575 5.33064e-20)
(1.12005 1.22839 -3.72891e-20)
(1.12331 1.26344 -2.33699e-20)
(1.06952 1.24168 -1.071e-19)
(0.99986 1.20708 3.61168e-20)
(0.923749 1.17055 -2.22177e-20)
(0.838515 1.13246 1.2414e-20)
(0.741843 1.09183 -2.54832e-19)
(0.6285 1.04519 -1.40501e-20)
(0.507418 0.994338 -1.18997e-18)
(0.391569 0.941429 5.10159e-20)
(0.282688 0.895383 -6.03252e-20)
(0.257785 1.48399 -7.50626e-20)
(0.333335 3.0949 1.78603e-20)
(0.354375 3.46946 7.06667e-22)
(0.313474 3.52617 2.81167e-19)
(0.275725 3.55209 1.36122e-19)
(0.226654 3.5755 -3.10202e-20)
(0.167239 3.57129 -5.12471e-20)
(0.254357 0.261904 1.36992e-19)
(0.97312 1.07117 3.6616e-19)
(1.11163 1.25409 -1.07441e-19)
(1.11268 1.28847 -8.84515e-20)
(1.05863 1.26635 0)
(0.989154 1.23169 8.32406e-20)
(0.913041 1.19535 -1.6809e-20)
(0.827975 1.15805 1.07551e-20)
(0.731157 1.11888 -2.83749e-20)
(0.617071 1.07492 -4.87722e-19)
(0.494209 1.02865 -5.47639e-19)
(0.37611 0.981319 -4.17877e-19)
(0.282393 1.02515 -4.55245e-19)
(0.326395 2.18666 4.70398e-19)
(0.419776 3.37718 3.92148e-19)
(0.398481 3.52821 0)
(0.352387 3.57278 0)
(0.31402 3.61359 -2.34822e-20)
(0.262357 3.67412 0)
(0.179298 3.64994 -2.18645e-20)
(0.243372 0.263637 -2.075e-19)
(0.967242 1.09764 -3.13744e-19)
(1.1018 1.28102 0)
(1.10073 1.31432 6.1919e-21)
(1.04651 1.29163 -1.22921e-19)
(0.977334 1.25678 1.45485e-19)
(0.90156 1.22065 -1.69523e-21)
(0.816859 1.18407 5.74818e-21)
(0.720118 1.14627 -1.7801e-19)
(0.605675 1.10494 2.42778e-20)
(0.481853 1.0634 0)
(0.362185 1.02462 0)
(0.307632 1.27565 -4.1493e-19)
(0.40928 2.86552 1.68572e-19)
(0.491777 3.48708 2.13828e-19)
(0.444519 3.56131 0)
(0.40394 3.62431 -2.20001e-21)
(0.368483 3.68413 -5.67531e-20)
(0.32179 3.66844 -1.21771e-19)