/*--------------------------------*- C++ -*----------------------------------*\
  =========                 |
  \\      /  F ield         | OpenFOAM: The Open Source CFD Toolbox
   \\    /   O peration     | Website:  https://openfoam.org
    \\  /    A nd           | Version:  9
     \\/     M anipulation  |
\*---------------------------------------------------------------------------*/
FoamFile
{
    format      ascii;
    class       volScalarField;
    location    "40";
    object      p;
}
// * * * * * * * * * * * * * * * * * * * * * * * * * * * * * * * * * * * * * //

dimensions      [0 2 -2 0 0 0 0];

internalField   nonuniform List<scalar> 
8800
(
0.840445
0.792656
0.753962
0.724962
0.704089
0.689245
0.67863
0.671127
0.666276
0.664175
0.665391
0.669537
0.676148
0.685438
0.698198
0.715918
0.740686
0.774621
0.817165
0.875867
0.671705
0.679383
0.686848
0.690153
0.688643
0.683555
0.677054
0.670956
0.666202
0.663318
0.66299
0.665444
0.66989
0.675804
0.68255
0.688813
0.692441
0.691698
0.686269
0.677573
0.650124
0.656282
0.660405
0.663341
0.665379
0.665969
0.664843
0.662713
0.66066
0.659701
0.660607
0.662936
0.665695
0.667844
0.668427
0.66721
0.664854
0.66145
0.656887
0.653126
0.644346
0.646994
0.64974
0.652134
0.653757
0.654902
0.65562
0.655706
0.655369
0.655262
0.65595
0.657063
0.657855
0.657882
0.657243
0.656128
0.654295
0.65171
0.649299
0.647795
0.639009
0.640432
0.642204
0.644226
0.645996
0.647318
0.64828
0.649041
0.649606
0.650106
0.650682
0.651108
0.65115
0.650816
0.650081
0.648802
0.647082
0.645216
0.643899
0.643068
0.633989
0.634908
0.636142
0.637697
0.639314
0.640818
0.642073
0.643098
0.644005
0.64482
0.645419
0.645662
0.645549
0.645049
0.64412
0.64288
0.64152
0.640236
0.639402
0.638852
0.629155
0.629823
0.630778
0.632068
0.63346
0.634894
0.6363
0.637574
0.638706
0.639719
0.64043
0.640693
0.640517
0.63993
0.63906
0.63806
0.637005
0.63605
0.635452
0.635048
0.624462
0.624977
0.625754
0.626872
0.628132
0.629479
0.630887
0.632305
0.633655
0.63488
0.635751
0.636088
0.635944
0.635457
0.63477
0.633974
0.633141
0.632418
0.631971
0.631657
0.619844
0.620253
0.620903
0.621897
0.623083
0.624381
0.625782
0.627275
0.628803
0.630266
0.631345
0.631834
0.631846
0.631545
0.631054
0.630447
0.629801
0.629258
0.628919
0.628665
0.61522
0.615552
0.616113
0.61703
0.618167
0.619446
0.620874
0.622448
0.624141
0.625861
0.627211
0.627947
0.628195
0.628111
0.627815
0.627402
0.626924
0.626527
0.626271
0.62606
0.610512
0.610787
0.611287
0.612157
0.613276
0.614575
0.616065
0.617758
0.619646
0.621654
0.623354
0.624421
0.624954
0.625114
0.625029
0.624803
0.624488
0.624217
0.624026
0.623847
0.605641
0.60587
0.606331
0.607187
0.608325
0.609688
0.611285
0.613156
0.61531
0.617684
0.619813
0.621269
0.622127
0.622557
0.622697
0.622656
0.622501
0.622338
0.6222
0.622046
0.600528
0.60072
0.60116
0.602031
0.603234
0.604705
0.606463
0.608576
0.611074
0.613916
0.616567
0.618484
0.619717
0.620452
0.620841
0.62099
0.620994
0.620933
0.620841
0.620704
0.595089
0.59525
0.595686
0.5966
0.597908
0.599534
0.601515
0.603943
0.606877
0.610308
0.613594
0.616062
0.617741
0.618832
0.619505
0.619878
0.620036
0.62007
0.620018
0.619894
0.589226
0.58936
0.589807
0.590791
0.592242
0.594076
0.596347
0.599174
0.60265
0.606796
0.610867
0.61402
0.61624
0.617749
0.618748
0.619368
0.619701
0.619832
0.619817
0.619703
0.582821
0.582927
0.583396
0.584479
0.586124
0.588236
0.590891
0.594236
0.5984
0.603435
0.608464
0.612432
0.615295
0.61729
0.61865
0.619551
0.620088
0.620325
0.620349
0.620241
0.575727
0.575817
0.576313
0.577521
0.579415
0.581878
0.585014
0.589016
0.594057
0.600207
0.606397
0.611338
0.614957
0.617548
0.619366
0.620588
0.621345
0.621694
0.621755
0.62165
0.567721
0.567801
0.568359
0.569709
0.571901
0.574806
0.578552
0.583364
0.589468
0.596971
0.604584
0.610726
0.615277
0.618581
0.620962
0.622585
0.623607
0.624083
0.624182
0.624078
0.558514
0.558566
0.559194
0.560755
0.563351
0.566833
0.571355
0.577212
0.584675
0.593862
0.603202
0.610761
0.616395
0.620541
0.6236
0.625708
0.627044
0.627666
0.627806
0.627699
0.547773
0.547806
0.54853
0.55037
0.553467
0.557685
0.563206
0.570393
0.57956
0.590826
0.60224
0.611491
0.618441
0.623599
0.627432
0.630129
0.63185
0.632639
0.632816
0.6327
0.534929
0.534951
0.535805
0.538011
0.541765
0.546942
0.553761
0.562653
0.573953
0.587759
0.601686
0.612953
0.621438
0.627802
0.632579
0.635997
0.638167
0.639143
0.639353
0.639221
0.51915
0.519166
0.520225
0.522974
0.527662
0.534179
0.542777
0.553945
0.568001
0.584937
0.601803
0.615357
0.62559
0.633323
0.639191
0.643417
0.646085
0.647254
0.647488
0.647332
0.499249
0.499272
0.50067
0.504259
0.51033
0.518761
0.529809
0.543979
0.561491
0.582203
0.602516
0.618716
0.630932
0.640215
0.647289
0.652438
0.655635
0.656987
0.657232
0.657045
0.473418
0.473475
0.475473
0.48047
0.488743
0.50004
0.514595
0.532803
0.554692
0.579907
0.604133
0.623234
0.637611
0.648573
0.656953
0.663079
0.666791
0.668294
0.668531
0.66831
0.438642
0.438822
0.442056
0.44967
0.461704
0.477418
0.496988
0.520509
0.547773
0.578213
0.606783
0.629011
0.645682
0.658434
0.668202
0.675318
0.679482
0.681075
0.68128
0.681023
0.389168
0.390196
0.396709
0.409698
0.428279
0.450829
0.477323
0.507584
0.541208
0.577487
0.610692
0.63617
0.65519
0.669758
0.681
0.689044
0.693564
0.695155
0.695295
0.695001
0.316056
0.323415
0.338554
0.361617
0.389924
0.421627
0.456612
0.49467
0.535394
0.578083
0.616359
0.645433
0.66713
0.683822
0.696745
0.705845
0.710797
0.712469
0.712607
0.712359
0.237304
0.254589
0.279111
0.312812
0.35127
0.3923
0.435889
0.481992
0.530301
0.580221
0.62467
0.658429
0.683703
0.703253
0.71854
0.729122
0.734544
0.736217
0.736398
0.736303
0.171934
0.192245
0.224597
0.26717
0.314525
0.364343
0.416253
0.47023
0.525971
0.582922
0.633283
0.671423
0.700008
0.722162
0.739328
0.750763
0.756424
0.758524
0.758759
0.758752
0.118403
0.140417
0.178201
0.227149
0.281497
0.338646
0.397897
0.459083
0.521792
0.585398
0.641317
0.683513
0.715062
0.739421
0.758052
0.770562
0.77725
0.779152
0.779431
0.779468
0.0737099
0.0968646
0.138357
0.192335
0.252343
0.315528
0.381057
0.448619
0.517658
0.587422
0.648485
0.694383
0.728574
0.754839
0.774776
0.788198
0.795401
0.79753
0.797942
0.798001
0.035479
0.0592823
0.103588
0.161532
0.226277
0.294599
0.365574
0.438783
0.51355
0.588958
0.654762
0.704019
0.740522
0.768287
0.789094
0.803151
0.810793
0.813373
0.813903
0.813984
0.00174109
0.0259659
0.0724875
0.133732
0.202471
0.275265
0.35106
0.429348
0.509347
0.589989
0.660202
0.712521
0.750997
0.77991
0.801384
0.81589
0.823912
0.826876
0.827527
0.827615
-0.028922
-0.00433362
0.044001
0.108089
0.180287
0.257003
0.337108
0.420023
0.504877
0.59045
0.664831
0.719974
0.760172
0.790059
0.812053
0.826961
0.835248
0.838439
0.839145
0.839212
-0.0573733
-0.0324521
0.0173846
0.0839384
0.159218
0.239422
0.323407
0.410571
0.499974
0.59025
0.668644
0.726479
0.768263
0.799004
0.821403
0.83657
0.845019
0.848346
0.849066
0.849099
-0.0843211
-0.0590335
-0.00772616
0.0608822
0.138901
0.222224
0.309732
0.400813
0.494496
0.5893
0.671633
0.732124
0.775474
0.807061
0.829903
0.845248
0.853794
0.857199
0.857943
0.857943
-0.110073
-0.0843947
-0.0319146
0.0386511
0.119088
0.205209
0.295916
0.390619
0.488339
0.587526
0.67378
0.736981
0.781973
0.814468
0.837777
0.85333
0.861916
0.865251
0.866016
0.866013
-0.134997
-0.108811
-0.055358
0.0170076
0.0996053
0.188238
0.281858
0.379902
0.481417
0.584848
0.675056
0.741102
0.787879
0.821398
0.845228
0.860971
0.869564
0.872859
0.873518
0.873465
-0.159194
-0.132606
-0.0780926
-0.00415977
0.0803467
0.171235
0.267497
0.368612
0.473678
0.581212
0.675426
0.744512
0.793282
0.827972
0.852395
0.868332
0.876871
0.880049
0.880611
0.880486
-0.182779
-0.155687
-0.100219
-0.0249199
0.0612805
0.15418
0.252815
0.35673
0.465096
0.576565
0.674828
0.747193
0.798231
0.834287
0.859371
0.875462
0.883851
0.886824
0.887256
0.887076
-0.205882
-0.178207
-0.121839
-0.0453014
0.0423931
0.13708
0.237838
0.344278
0.455672
0.570869
0.673188
0.749085
0.802738
0.840423
0.866248
0.882419
0.89054
0.893206
0.893501
0.893283
-0.228518
-0.20019
-0.142961
-0.0652993
0.023719
0.119967
0.222613
0.331299
0.44543
0.564098
0.67043
0.750092
0.806766
0.846456
0.873163
0.889274
0.896906
0.899159
0.899302
0.899057
-0.250536
-0.221586
-0.163527
-0.0848847
0.00529167
0.102912
0.207201
0.317869
0.434431
0.556276
0.666484
0.750094
0.810213
0.852431
0.880328
0.896235
0.903011
0.904636
0.904606
0.904352
-0.271917
-0.242373
-0.183536
-0.104008
-0.0128286
0.0859753
0.191693
0.304065
0.422753
0.547433
0.661302
0.748946
0.812909
0.858302
0.888013
0.903772
0.909147
0.909667
0.909366
0.909164
-0.292737
-0.262522
-0.202964
-0.122641
-0.0305794
0.0692405
0.176177
0.289992
0.410491
0.53764
0.654845
0.746496
0.814607
0.863847
0.89638
0.912696
0.916299
0.91471
0.913624
0.913673
-0.312823
-0.282015
-0.221757
-0.140723
-0.047903
0.0527901
0.160748
0.275762
0.397766
0.526999
0.647117
0.742594
0.815004
0.86859
0.905148
0.923787
0.926631
0.922143
0.918633
0.917904
-0.332274
-0.300844
-0.239937
-0.158287
-0.0648349
0.0365769
0.145347
0.261314
0.384506
0.515438
0.637985
0.736972
0.813762
0.87186
0.913357
0.936859
0.942229
0.937195
0.927423
0.911694
-0.351019
-0.319005
-0.257627
-0.175533
-0.0816685
0.0202617
0.129551
0.246156
0.370165
0.502306
0.626784
0.728805
0.810231
0.87266
0.918719
0.948595
0.957575
0.946483
0.927467
0.91291
-0.368879
-0.336621
-0.274638
-0.192244
-0.0980759
0.00419353
0.113589
0.23062
0.35506
0.487881
0.613634
0.717701
0.803778
0.869867
0.91636
0.945879
0.958537
0.937644
0.868466
0.83666
-0.385191
-0.354903
-0.290645
-0.207883
-0.113307
-0.0111273
0.0977657
0.214934
0.339411
0.472296
0.598504
0.703435
0.793221
0.863101
0.901932
0.924155
0.920958
0.869401
0.799406
0.756021
-0.441151
-0.371039
-0.305286
-0.223529
-0.12891
-0.0271459
0.0820157
0.19882
0.322859
0.455121
0.580837
0.685541
0.774999
0.852023
0.857997
0.867945
0.82699
0.760267
0.684037
0.641331
-0.402864
-0.3869
-0.326974
-0.24491
-0.151761
-0.0501768
0.0579984
0.174091
0.297028
0.427625
0.550918
0.653396
0.734405
0.81341
0.806756
0.699985
0.5975
0.526021
0.453218
0.486089
-0.434164
-0.404868
-0.344038
-0.262735
-0.169601
-0.0682691
0.0401315
0.155575
0.277412
0.406112
0.526402
0.624732
0.697779
0.739334
0.694148
0.550333
0.424467
0.334359
0.23562
0.287962
-0.458346
-0.426108
-0.364025
-0.282531
-0.189358
-0.0881731
0.0201254
0.134723
0.255144
0.381404
0.497902
0.590482
0.654176
0.663364
0.560436
0.389101
0.236845
0.11829
-0.0128087
0.0213073
-0.482055
-0.448248
-0.384978
-0.302638
-0.209361
-0.10833
-0.000541182
0.11309
0.231915
0.355408
0.467295
0.553372
0.601835
0.579745
0.424417
0.228547
0.0373717
-0.133063
-0.324319
-0.339391
-0.505181
-0.470915
-0.406758
-0.3237
-0.230257
-0.129429
-0.0222648
0.090294
0.207291
0.327674
0.434372
0.513239
0.543799
0.486598
0.29514
0.0843052
-0.134867
-0.327745
-0.574066
-0.881954
-0.528627
-0.494347
-0.429649
-0.346123
-0.252485
-0.151804
-0.0451874
0.0662815
0.181367
0.298436
0.399775
0.470217
0.482271
0.374465
0.18302
-0.0275464
-0.233756
-0.408413
-0.476379
-0.561407
-0.553339
-0.518989
-0.453995
-0.370239
-0.276543
-0.176096
-0.0701155
0.0401038
0.152988
0.266267
0.361849
0.422007
0.40954
0.26789
0.0839663
-0.107444
-0.271172
-0.364419
-0.388277
-0.404654
-0.579631
-0.545161
-0.479972
-0.396145
-0.302567
-0.202513
-0.0974014
0.0112778
0.121569
0.230449
0.319811
0.366986
0.33627
0.168988
-0.00548753
-0.171326
-0.298898
-0.337489
-0.351154
-0.35244
-0.607708
-0.573038
-0.507646
-0.423835
-0.330503
-0.231056
-0.127058
-0.0202423
0.087043
0.190985
0.273347
0.306747
0.258973
0.0771368
-0.0880543
-0.23616
-0.314574
-0.330962
-0.332274
-0.332122
-0.63763
-0.602665
-0.537039
-0.453298
-0.360361
-0.261709
-0.159083
-0.0544644
0.04942
0.147962
0.22244
0.24492
0.161957
-0.00717534
-0.164291
-0.285698
-0.320875
-0.321496
-0.321498
-0.320934
-0.669114
-0.633899
-0.568043
-0.484443
-0.392045
-0.294405
-0.193433
-0.0913533
0.00872413
0.101478
0.167795
0.174702
0.0711806
-0.0856673
-0.224877
-0.302105
-0.311782
-0.313965
-0.314355
-0.314147
-0.701598
-0.666246
-0.600399
-0.51704
-0.425357
-0.328976
-0.229946
-0.130767
-0.0348781
0.0518246
0.110109
0.102075
-0.00977041
-0.153822
-0.272777
-0.299082
-0.309594
-0.310328
-0.309384
-0.308865
-0.734634
-0.699181
-0.633651
-0.550689
-0.459941
-0.365086
-0.268328
-0.172414
-0.0811015
-0.000384262
0.0486987
0.033273
-0.0836015
-0.212587
-0.308494
-0.328567
-0.313621
-0.308597
-0.306841
-0.305752
-0.767357
-0.732045
-0.666939
-0.58477
-0.495239
-0.40224
-0.308107
-0.215813
-0.129468
-0.0546335
-0.0145592
-0.0296796
-0.145896
-0.257415
-0.327778
-0.322158
-0.313873
-0.307156
-0.303819
-0.30261
-0.798183
-0.763642
-0.69934
-0.618355
-0.530466
-0.439708
-0.34859
-0.260265
-0.179196
-0.110478
-0.0734563
-0.0995657
-0.188645
-0.284988
-0.33113
-0.333608
-0.314364
-0.297965
-0.293401
-0.292015
-0.825627
-0.792085
-0.729758
-0.650291
-0.564557
-0.476497
-0.38885
-0.304856
-0.229201
-0.167372
-0.129061
-0.174874
-0.222017
-0.235372
-0.304565
-0.318041
-0.320669
-0.318191
-0.315614
-0.313599
-0.84761
-0.815815
-0.755977
-0.679173
-0.596178
-0.511389
-0.427689
-0.348417
-0.278355
-0.224294
-0.187193
-0.253938
-0.279857
-0.160096
-0.201909
-0.324711
-0.429294
-0.461348
-0.451115
-0.443733
-0.861993
-0.83284
-0.776407
-0.703076
-0.623741
-0.542921
-0.463681
-0.38949
-0.325372
-0.279389
-0.247361
-0.355579
-0.463356
-0.374366
-0.374622
-0.502358
-0.582686
-0.59801
-0.588702
-0.586365
-0.866174
-0.840985
-0.789041
-0.720194
-0.645464
-0.569432
-0.495114
-0.426311
-0.368449
-0.33036
-0.306905
-0.479014
-0.816352
-1.33166
-1.35758
-0.937762
-0.710348
-0.645349
-0.634802
-0.632784
-0.858358
-0.837861
-0.791774
-0.728881
-0.659735
-0.589178
-0.520133
-0.456676
-0.404863
-0.374456
-0.366985
-0.547073
-0.844414
-1.26476
-1.30679
-0.872842
-0.66898
-0.613854
-0.607581
-0.605122
-0.836314
-0.82047
-0.782882
-0.727864
-0.665382
-0.600795
-0.536995
-0.478096
-0.43062
-0.404642
-0.405502
-0.419065
-0.243345
0.128548
0.23503
-0.0932164
-0.404288
-0.493949
-0.499322
-0.490603
-0.801813
-0.7913
-0.762662
-0.717154
-0.662176
-0.603662
-0.544541
-0.488553
-0.442745
-0.4164
-0.416046
-0.342408
-0.153871
0.0925427
-0.102898
-0.536114
-0.633652
-0.584165
-0.517875
-0.52971
-0.760313
-0.754303
-0.735251
-0.699043
-0.651675
-0.598349
-0.542549
-0.487656
-0.439143
-0.40972
-0.42137
-0.514435
-0.866578
-1.5087
-2.0554
-2.4076
-2.33716
-2.01338
-1.68547
-1.52105
-0.719926
-0.7165
-0.706067
-0.678411
-0.636819
-0.58701
-0.532263
-0.475095
-0.420515
-0.378242
-0.374409
-0.489067
-0.820973
-1.28133
-1.68527
-1.80361
-1.64879
-1.37751
-1.1387
-1.00864
-0.68747
-0.685367
-0.680086
-0.660039
-0.622575
-0.573141
-0.516344
-0.452863
-0.38515
-0.310817
-0.24252
-0.163906
-0.0922214
0.0984518
0.356303
0.680341
1.00832
1.24283
1.36992
1.41823
-0.65985
-0.658979
-0.657616
-0.645747
-0.61198
-0.560998
-0.499167
-0.427124
-0.34436
-0.247521
-0.123039
0.0493014
0.343462
0.760055
1.24552
1.71493
2.0945
2.34755
2.47687
2.51482
-0.64155
-0.641067
-0.640948
-0.63484
-0.605303
-0.551825
-0.483596
-0.403978
-0.310108
-0.199323
-0.0654872
0.0766251
0.329895
0.78737
1.34282
1.85884
2.2553
2.48843
2.59362
2.62277
-0.627554
-0.627132
-0.62707
-0.625466
-0.600982
-0.545455
-0.471135
-0.385416
-0.287974
-0.174235
-0.0493804
0.0912385
0.269429
0.664254
1.14908
1.58266
1.90961
2.09485
2.17659
2.19839
-0.61826
-0.616649
-0.615583
-0.616643
-0.598031
-0.540217
-0.459867
-0.369603
-0.272026
-0.161635
-0.045745
0.0762401
0.201382
0.464931
0.836794
1.15322
1.39464
1.53153
1.59019
1.60459
-0.620799
-0.619828
-0.62184
-0.624229
-0.601369
-0.532841
-0.444733
-0.351561
-0.25601
-0.152831
-0.0528959
0.0400211
0.126051
0.29434
0.543885
0.763985
0.92788
1.02086
1.06122
1.06918
-0.620572
-0.624922
-0.632877
-0.630912
-0.595342
-0.512173
-0.418511
-0.326647
-0.238158
-0.148463
-0.0685829
-0.00167153
0.0574671
0.168781
0.33544
0.477501
0.580409
0.637502
0.660604
0.664213
-0.562254
-0.569417
-0.579388
-0.574936
-0.534696
-0.45631
-0.371649
-0.291304
-0.216614
-0.143526
-0.0806019
-0.0344532
0.00607403
0.0773184
0.185623
0.276772
0.338181
0.371159
0.38367
0.385138
-0.413863
-0.420315
-0.427501
-0.424656
-0.398036
-0.350873
-0.297173
-0.241767
-0.187025
-0.131995
-0.0873031
-0.0587751
-0.0352164
0.0165916
0.0859435
0.141509
0.177136
0.195081
0.20183
0.201784
-0.233277
-0.236649
-0.242184
-0.246415
-0.243309
-0.231258
-0.210974
-0.184562
-0.152873
-0.117421
-0.0888871
-0.0716458
-0.0570461
-0.0225568
0.0219104
0.0560025
0.0770733
0.0868554
0.0900623
0.0895524
-0.0919942
-0.0937262
-0.0988503
-0.109373
-0.122837
-0.133354
-0.136824
-0.132124
-0.119038
-0.0995553
-0.0817992
-0.0712756
-0.0631115
-0.0374733
-0.00890986
0.0110759
0.0215514
0.0257501
0.0268895
0.0261447
-0.0138339
-0.0148857
-0.0197447
-0.0319011
-0.0507386
-0.0698164
-0.084099
-0.0909972
-0.0897129
-0.0811206
-0.0708944
-0.0640592
-0.0586099
-0.03907
-0.0201932
-0.00969662
-0.00489537
-0.00318189
-0.00292375
-0.00378733
0.017448
0.0166674
0.0126861
0.00219146
-0.0148402
-0.0336764
-0.0502866
-0.0619522
-0.0668621
-0.0645654
-0.0578473
-0.0507196
-0.0438123
-0.0313444
-0.0203802
-0.015183
-0.0127047
-0.0118999
-0.0119843
-0.0129383
0.0231057
0.0225428
0.0196818
0.0119819
-0.00101554
-0.0164445
-0.0312963
-0.0431812
-0.0502261
-0.0509533
-0.045109
-0.0356601
-0.0249941
-0.0163029
-0.0129347
-0.0117299
-0.010888
-0.0104429
-0.0106602
-0.0116952
0.0175024
0.0171018
0.0151864
0.0100261
0.00102396
-0.0103103
-0.0221005
-0.0324551
-0.0395859
-0.0411606
-0.035482
-0.0237231
-0.0105253
-0.00568728
-0.00705649
-0.00737269
-0.00680783
-0.00583794
-0.00579472
-0.00694197
0.00831663
0.00802
0.00677829
0.00351247
-0.00237768
-0.010244
-0.0190216
-0.0273787
-0.0339396
-0.0364805
-0.0318294
-0.0200357
-0.00683595
-0.00566854
-0.00833866
-0.00815841
-0.00592997
-0.00376234
-0.00360533
-0.00491649
-0.000734803
-0.000974882
-0.00178419
-0.00377834
-0.00749001
-0.0128077
-0.0192389
-0.0260152
-0.0322972
-0.0362729
-0.0347716
-0.0268328
-0.0180428
-0.0199309
-0.0222177
-0.0197966
-0.0152484
-0.0118273
-0.0110533
-0.0123326
-0.00800391
-0.0082223
-0.00879897
-0.0100558
-0.0124166
-0.0160488
-0.0208928
-0.0266738
-0.0330073
-0.0394591
-0.0437178
-0.0442564
-0.0440181
-0.0476925
-0.0469555
-0.040648
-0.034153
-0.0301616
-0.0294931
-0.0306876
-0.012858
-0.0130649
-0.0135326
-0.0144226
-0.0160391
-0.0187039
-0.0226132
-0.0278643
-0.0347516
-0.0440664
-0.0558808
-0.0682984
-0.080244
-0.0852444
-0.0778072
-0.067717
-0.0601113
-0.056543
-0.0559811
-0.0568368
-0.0153296
-0.0155224
-0.0159337
-0.0166782
-0.0179139
-0.0200435
-0.0234123
-0.0283666
-0.0356092
-0.0476277
-0.0664063
-0.0903877
-0.114654
-0.11684
-0.103726
-0.0913469
-0.0845416
-0.0819413
-0.0815892
-0.0820392
-0.0158026
-0.0159809
-0.0163596
-0.0170603
-0.0181192
-0.0199147
-0.0227557
-0.0272834
-0.0347516
-0.0472842
-0.0693344
-0.101818
-0.131521
-0.129781
-0.11347
-0.101926
-0.0970255
-0.0961304
-0.0959606
-0.0960975
-0.0147297
-0.0148903
-0.0152139
-0.0158406
-0.0168326
-0.0182853
-0.0208029
-0.0246533
-0.0308386
-0.0420859
-0.0619348
-0.0915569
-0.116421
-0.111645
-0.0995927
-0.0933225
-0.0922274
-0.0926916
-0.0926981
-0.0927746
-0.0125031
-0.012654
-0.0129168
-0.0134549
-0.0142578
-0.0155054
-0.0173566
-0.0203361
-0.0250403
-0.0324858
-0.0447798
-0.0626994
-0.0754891
-0.071282
-0.0678566
-0.0697666
-0.0724144
-0.073975
-0.0743474
-0.074422
-0.00954246
-0.00964417
-0.00978203
-0.0101178
-0.0108005
-0.0118622
-0.0130298
-0.0149324
-0.0173719
-0.0204718
-0.023281
-0.0258457
-0.0271864
-0.0247774
-0.0300926
-0.0382455
-0.042926
-0.0445427
-0.0453559
-0.045658
-0.00645637
-0.0065285
-0.00658752
-0.00674842
-0.00714877
-0.00775524
-0.00876721
-0.0094963
-0.0102944
-0.00946676
-0.00386917
0.00873144
0.0206207
0.017788
0.00318231
-0.0092634
-0.0143704
-0.0161078
-0.0172102
-0.0176243
-0.00350987
-0.00359536
-0.00360624
-0.00357282
-0.00377123
-0.00416153
-0.00460992
-0.0051873
-0.00498543
-0.00227715
0.00645978
0.0267599
0.0497933
0.0401028
0.0180814
0.0069895
0.00500562
0.00459748
0.00262432
0.00193992
-0.000471172
-0.000567154
-0.000705877
-0.000925424
-0.00109184
-0.00116901
-0.00132647
-0.00128921
-0.00096399
-0.000127445
0.00197577
0.00657472
0.0188412
0.0191165
0.0123592
0.00940863
0.00625922
0.0026785
0.00200383
0.00188593
-0.0902788
0.081322
0.281952
0.45597
0.595661
0.70647
0.798492
0.876379
0.911321
0.88805
0.22216
0.345937
0.478865
0.593997
0.691305
0.772061
0.837395
0.883649
0.906856
0.918828
0.446716
0.531517
0.622228
0.702659
0.771869
0.829766
0.875758
0.909323
0.933512
0.951404
0.610881
0.671199
0.734798
0.792979
0.843761
0.886842
0.922185
0.950339
0.973424
0.99167
0.738698
0.782765
0.829569
0.87415
0.913552
0.94793
0.977322
1.00175
1.02232
1.04013
0.844406
0.877863
0.916527
0.9526
0.985677
1.01529
1.04115
1.06286
1.08084
1.09817
0.937859
0.966878
1.00123
1.03369
1.06393
1.09134
1.11528
1.13514
1.15073
1.16781
1.027
1.05641
1.09065
1.1229
1.15269
1.17943
1.20241
1.22099
1.23443
1.25147
1.12265
1.156
1.19278
1.22649
1.25665
1.28293
1.30496
1.3223
1.33422
1.35162
1.23786
1.27578
1.31451
1.34883
1.37825
1.40306
1.42348
1.43941
1.45091
1.46898
1.38293
1.42153
1.45773
1.48846
1.51418
1.53632
1.55541
1.57096
1.58341
1.60141
1.55811
1.58974
1.61596
1.63844
1.65844
1.67719
1.69492
1.71142
1.72678
1.74485
1.74677
1.76398
1.77903
1.79528
1.81121
1.82575
1.83897
1.85291
1.87046
1.89061
1.9285
1.93805
1.94961
1.96043
1.96971
1.97931
1.9901
2.00148
2.01284
2.0282
2.13578
2.13944
2.12449
2.10968
2.10341
2.1091
2.12758
2.1579
2.19008
2.21673
2.44208
2.30722
2.23059
2.18823
2.17081
2.17478
2.20218
2.25859
2.36121
2.58558
0.731043
0.728912
0.724426
0.715797
0.703565
0.691427
0.681183
0.673265
0.667614
0.664314
0.663902
0.666582
0.671639
0.678825
0.688186
0.699708
0.712345
0.723371
0.729478
0.732527
0.655507
0.661352
0.667687
0.672173
0.674633
0.674297
0.671544
0.66771
0.664166
0.661857
0.66165
0.663784
0.667396
0.671646
0.675423
0.677285
0.676334
0.67284
0.667669
0.661046
0.647109
0.649405
0.652804
0.655793
0.657858
0.659341
0.660077
0.659733
0.65867
0.657734
0.657839
0.659199
0.660957
0.662217
0.662362
0.661446
0.659877
0.657526
0.654252
0.651327
0.641632
0.642718
0.644546
0.646916
0.648928
0.65034
0.651338
0.652057
0.652414
0.652577
0.652991
0.653718
0.65425
0.654262
0.653806
0.652925
0.65143
0.649326
0.647226
0.645839
0.636473
0.637136
0.638239
0.639935
0.641703
0.643317
0.644587
0.645566
0.646397
0.647117
0.647756
0.648213
0.648325
0.648092
0.647472
0.646374
0.644913
0.643343
0.642008
0.641223
0.631554
0.632014
0.632796
0.634085
0.635558
0.637055
0.638491
0.639747
0.640824
0.641796
0.642603
0.643055
0.643101
0.642743
0.641977
0.640932
0.639762
0.638595
0.637658
0.637136
0.626797
0.627141
0.627748
0.628807
0.630086
0.631437
0.632844
0.634244
0.635549
0.636732
0.637711
0.638261
0.638312
0.637928
0.63724
0.63639
0.63548
0.63457
0.633871
0.633489
0.622152
0.62242
0.62291
0.623809
0.624963
0.626235
0.627593
0.629029
0.630493
0.631899
0.633089
0.633782
0.633923
0.633665
0.633159
0.632505
0.63178
0.631081
0.630558
0.630266
0.617542
0.617755
0.618161
0.618951
0.620024
0.621245
0.622589
0.624062
0.625641
0.62726
0.628702
0.629614
0.629954
0.629901
0.629593
0.62913
0.628588
0.628065
0.627675
0.627446
0.612886
0.613057
0.613405
0.614122
0.61515
0.616347
0.617711
0.619254
0.620966
0.622807
0.624546
0.625765
0.626383
0.626576
0.626482
0.626213
0.625852
0.62548
0.625199
0.625017
0.608106
0.608243
0.608549
0.609223
0.610235
0.611454
0.612879
0.614533
0.61643
0.618543
0.620648
0.622253
0.623202
0.623674
0.623819
0.62375
0.623562
0.623333
0.623141
0.622995
0.603123
0.603232
0.603509
0.604165
0.605196
0.606482
0.608011
0.609835
0.611987
0.614452
0.617012
0.619081
0.620416
0.621203
0.621608
0.621753
0.621734
0.621639
0.621526
0.621408
0.597858
0.597942
0.598202
0.598864
0.599951
0.601346
0.603032
0.605087
0.607573
0.6105
0.613631
0.616248
0.618033
0.619184
0.619881
0.620261
0.620422
0.620454
0.620408
0.620316
0.59222
0.592283
0.592533
0.593223
0.594399
0.595946
0.597845
0.600199
0.603094
0.606579
0.610405
0.613707
0.616049
0.617642
0.61868
0.619332
0.619691
0.619858
0.619877
0.619804
0.5861
0.586141
0.586389
0.587125
0.588429
0.590181
0.592367
0.595114
0.598541
0.602735
0.607417
0.611542
0.614545
0.616651
0.618079
0.619026
0.619622
0.619929
0.620012
0.619958
0.579379
0.579392
0.579639
0.580445
0.581916
0.583932
0.586482
0.58973
0.593833
0.598903
0.604637
0.609771
0.613569
0.616291
0.61818
0.619473
0.620339
0.620803
0.620954
0.620918
0.571852
0.571857
0.572117
0.573006
0.57469
0.577028
0.580046
0.583927
0.588879
0.595061
0.602093
0.60842
0.613165
0.616623
0.619084
0.62081
0.621983
0.622622
0.622843
0.622821
0.563265
0.563234
0.563538
0.564554
0.566502
0.569254
0.572858
0.57753
0.583525
0.591038
0.599648
0.607475
0.613382
0.617725
0.620875
0.623144
0.624687
0.625533
0.625834
0.625827
0.55333
0.553274
0.553619
0.554807
0.557093
0.560391
0.564757
0.570462
0.577822
0.58706
0.597609
0.607167
0.614413
0.619797
0.623761
0.626661
0.628644
0.629737
0.630123
0.630127
0.541595
0.541512
0.541929
0.543345
0.546058
0.550046
0.55538
0.562386
0.571429
0.582753
0.595657
0.607353
0.61624
0.622886
0.627829
0.63149
0.634018
0.635399
0.635877
0.635886
0.527362
0.527253
0.527789
0.529524
0.532821
0.537749
0.544397
0.553149
0.564407
0.578384
0.594134
0.60829
0.61904
0.627126
0.633218
0.637769
0.640932
0.642639
0.643209
0.643214
0.509634
0.509503
0.510236
0.512457
0.516615
0.522889
0.531367
0.542465
0.556577
0.573832
0.592976
0.610012
0.622901
0.632642
0.640047
0.64559
0.649455
0.651503
0.652155
0.652148
0.486941
0.486797
0.487868
0.49087
0.496366
0.504659
0.515763
0.530081
0.547907
0.569202
0.592345
0.612644
0.627925
0.63948
0.648325
0.65499
0.659603
0.661982
0.662697
0.662667
0.456941
0.456825
0.45852
0.46292
0.470698
0.482188
0.497186
0.515961
0.538577
0.564772
0.592497
0.616398
0.634261
0.647772
0.65814
0.665999
0.671341
0.674
0.674747
0.674687
0.415531
0.415587
0.418675
0.425976
0.43797
0.454697
0.475478
0.500264
0.528862
0.560792
0.593622
0.62139
0.64196
0.657503
0.669491
0.678589
0.684579
0.687415
0.688141
0.688045
0.354995
0.35621
0.363803
0.377547
0.397268
0.422321
0.451245
0.483706
0.519402
0.557757
0.596027
0.627771
0.651089
0.668676
0.682263
0.69251
0.699064
0.701915
0.702504
0.702367
0.282731
0.284579
0.299071
0.322806
0.353403
0.388265
0.42611
0.466818
0.510196
0.555735
0.60045
0.637287
0.664373
0.684893
0.70067
0.712452
0.719798
0.722831
0.723513
0.7235
0.208132
0.214449
0.235824
0.269722
0.310574
0.354997
0.401748
0.450749
0.501904
0.554772
0.606173
0.648352
0.679362
0.703002
0.721422
0.73502
0.743042
0.745746
0.746253
0.74634
0.14736
0.155879
0.181928
0.222825
0.271565
0.324083
0.378821
0.435569
0.494133
0.554052
0.611839
0.65902
0.69366
0.720052
0.740484
0.755326
0.763699
0.766882
0.767916
0.768075
0.0978447
0.106949
0.136513
0.182553
0.237361
0.296383
0.357834
0.421394
0.486695
0.553159
0.616921
0.668744
0.706659
0.735468
0.757665
0.773661
0.782939
0.786823
0.788073
0.788254
0.0561744
0.0655453
0.097507
0.14749
0.207235
0.271645
0.338787
0.408276
0.479598
0.552042
0.621308
0.677387
0.718259
0.749144
0.772751
0.789674
0.799782
0.804177
0.805614
0.805796
0.0199543
0.0294306
0.0631889
0.116329
0.180164
0.249163
0.321268
0.395996
0.472741
0.55065
0.625009
0.685
0.728501
0.761081
0.785665
0.803223
0.813994
0.818828
0.82042
0.82064
-0.012412
-0.0029044
0.0322182
0.0880646
0.155337
0.228292
0.304779
0.384212
0.465911
0.548894
0.628029
0.691665
0.737498
0.771487
0.79685
0.814967
0.826182
0.831388
0.833066
0.833301
-0.0421142
-0.0325707
0.00365404
0.0618384
0.13208
0.20853
0.288908
0.372607
0.458883
0.546645
0.630333
0.697419
0.7454
0.780617
0.806641
0.825145
0.836613
0.842094
0.84384
0.844072
-0.0699246
-0.0603374
-0.0230964
0.0370276
0.109929
0.189487
0.273356
0.360947
0.451478
0.543776
0.631869
0.702314
0.752359
0.788732
0.815363
0.834174
0.845799
0.851406
0.853154
0.853405
-0.0963245
-0.0866802
-0.0485459
0.0132944
0.0885654
0.170884
0.257908
0.349061
0.443557
0.540182
0.632583
0.706378
0.75851
0.796073
0.823339
0.842478
0.854255
0.859894
0.861629
0.861753
-0.121759
-0.111963
-0.0730064
-0.00963171
0.0677528
0.152537
0.24241
0.336826
0.435025
0.535774
0.632417
0.709632
0.763958
0.802818
0.830786
0.850257
0.862155
0.867747
0.869424
0.869549
-0.146429
-0.136407
-0.096746
-0.0319085
0.0473397
0.134322
0.226774
0.324175
0.425808
0.530487
0.63132
0.712074
0.76878
0.809091
0.837859
0.857691
0.869682
0.875215
0.876785
0.876885
-0.170419
-0.160193
-0.11978
-0.0536338
0.0272456
0.116189
0.210957
0.311071
0.415874
0.524265
0.629233
0.713684
0.773011
0.814985
0.844673
0.864892
0.876914
0.8823
0.883732
0.883768
-0.193873
-0.183351
-0.142226
-0.0748833
0.00743997
0.0981232
0.194954
0.297517
0.40522
0.517089
0.626095
0.714399
0.776648
0.820567
0.851324
0.871925
0.883893
0.889048
0.890275
0.890235
-0.216764
-0.205957
-0.164129
-0.0956924
-0.0120738
0.0801418
0.178806
0.283553
0.393872
0.508948
0.621851
0.714128
0.779638
0.825871
0.857914
0.878884
0.890623
0.895388
0.896377
0.896274
-0.239152
-0.228031
-0.185442
-0.116036
-0.0312726
0.0622824
0.16256
0.26924
0.381884
0.499865
0.616461
0.712777
0.78188
0.830892
0.864575
0.885931
0.897185
0.901322
0.902005
0.90184
-0.26086
-0.249492
-0.206163
-0.135872
-0.0501058
0.0446202
0.146286
0.254652
0.369331
0.489901
0.609908
0.710247
0.783228
0.835546
0.871443
0.89339
0.903831
0.906888
0.907108
0.906886
-0.282032
-0.270308
-0.22628
-0.155185
-0.0685396
0.0271984
0.130078
0.239872
0.356303
0.47914
0.602208
0.706434
0.783491
0.839638
0.878549
0.901747
0.911223
0.912446
0.911703
0.911381
-0.302507
-0.290458
-0.245765
-0.17393
-0.0864963
0.0101025
0.114017
0.225022
0.342915
0.467655
0.593411
0.701249
0.782457
0.842835
0.885646
0.911407
0.920668
0.919442
0.9164
0.915096
-0.322348
-0.309985
-0.264567
-0.192056
-0.103939
-0.00659765
0.0981891
0.210185
0.32928
0.45559
0.583602
0.694619
0.779917
0.844686
0.892025
0.922046
0.933499
0.931358
0.924224
0.914818
-0.341473
-0.328853
-0.282787
-0.209723
-0.121082
-0.0231878
0.0822488
0.194947
0.314936
0.442422
0.572223
0.685938
0.775303
0.844643
0.896654
0.932378
0.949507
0.949492
0.939298
0.931668
-0.359835
-0.346985
-0.300418
-0.226897