/*--------------------------------*- C++ -*----------------------------------*\
  =========                 |
  \\      /  F ield         | OpenFOAM: The Open Source CFD Toolbox
   \\    /   O peration     | Website:  https://openfoam.org
    \\  /    A nd           | Version:  9
     \\/     M anipulation  |
\*---------------------------------------------------------------------------*/
FoamFile
{
    format      ascii;
    class       volScalarField;
    location    "51";
    object      p;
}
// * * * * * * * * * * * * * * * * * * * * * * * * * * * * * * * * * * * * * //

dimensions      [0 2 -2 0 0 0 0];

internalField   nonuniform List<scalar> 
8800
(
0.815935
0.768147
0.729457
0.70046
0.679594
0.664761
0.654161
0.646677
0.641852
0.639788
0.641049
0.645233
0.651873
0.661186
0.673962
0.691694
0.716469
0.750409
0.792957
0.851659
0.647188
0.654866
0.66234
0.665647
0.664141
0.659061
0.652572
0.64649
0.641761
0.638911
0.638625
0.641124
0.645606
0.651546
0.658311
0.664588
0.668227
0.66749
0.662068
0.653376
0.625598
0.631756
0.635882
0.638824
0.64087
0.64147
0.640359
0.638249
0.636227
0.635312
0.636266
0.638639
0.641432
0.643607
0.64421
0.643007
0.640662
0.637267
0.632707
0.628946
0.6198
0.62245
0.625199
0.627598
0.629229
0.630386
0.631121
0.631231
0.630928
0.63087
0.631612
0.632773
0.633604
0.633662
0.633046
0.63195
0.63013
0.627556
0.625151
0.623647
0.614436
0.61586
0.617635
0.619663
0.621442
0.622776
0.623758
0.624546
0.625152
0.625705
0.626344
0.626828
0.626916
0.626618
0.625913
0.624658
0.622956
0.621104
0.619794
0.618963
0.609381
0.6103
0.611538
0.613099
0.614725
0.616241
0.617517
0.618573
0.619525
0.620404
0.621078
0.62139
0.621334
0.620881
0.619988
0.618779
0.617444
0.616178
0.615353
0.614802
0.604501
0.60517
0.606128
0.607424
0.608824
0.610272
0.6117
0.613008
0.614191
0.615281
0.616082
0.616428
0.616324
0.615797
0.614975
0.614015
0.612992
0.612061
0.611473
0.611068
0.599752
0.600268
0.601047
0.602169
0.603436
0.604797
0.606229
0.607684
0.609091
0.610404
0.611383
0.611825
0.611772
0.611363
0.610739
0.609997
0.609209
0.608515
0.608078
0.607762
0.595062
0.595472
0.596123
0.59712
0.598313
0.599625
0.601052
0.602586
0.604181
0.605748
0.606957
0.607576
0.607703
0.607501
0.60709
0.606552
0.605962
0.605457
0.60513
0.604873
0.590347
0.590681
0.591243
0.592159
0.593302
0.594596
0.596054
0.597679
0.599451
0.601293
0.602801
0.603696
0.604084
0.60412
0.603927
0.603602
0.603198
0.602848
0.602605
0.60239
0.585522
0.585799
0.5863
0.587169
0.588291
0.589606
0.591131
0.592887
0.594876
0.597033
0.598921
0.600174
0.600875
0.601182
0.601226
0.601111
0.600891
0.600676
0.600499
0.600314
0.580502
0.580734
0.581195
0.582047
0.583188
0.584567
0.586202
0.588141
0.590409
0.59296
0.595313
0.596996
0.598061
0.598679
0.598984
0.599087
0.599046
0.598954
0.598832
0.598668
0.575197
0.575395
0.575835
0.5767
0.577902
0.579389
0.581188
0.583379
0.586005
0.589054
0.591972
0.594164
0.595653
0.59662
0.597216
0.597542
0.597697
0.59772
0.597644
0.597496
0.569513
0.569682
0.57012
0.571026
0.57233
0.573976
0.576006
0.578526
0.58161
0.585279
0.588882
0.591682
0.593668
0.595037
0.595961
0.596561
0.596903
0.597032
0.596996
0.596857
0.563336
0.563481
0.563931
0.564908
0.566361
0.568224
0.570562
0.573504
0.577166
0.581598
0.586034
0.589562
0.592138
0.593976
0.595273
0.596164
0.59672
0.596963
0.596963
0.596831
0.556537
0.556656
0.557133
0.558213
0.559866
0.562016
0.564745
0.568223
0.572604
0.57797
0.583418
0.587822
0.591101
0.593495
0.595227
0.596451
0.597246
0.597606
0.597641
0.59751
0.548945
0.549039
0.549558
0.550775
0.552685
0.555202
0.558436
0.562596
0.567875
0.574388
0.581059
0.586508
0.590614
0.593661
0.595917
0.597529
0.598587
0.599069
0.599136
0.599004
0.540332
0.540432
0.541003
0.542378
0.544616
0.547607
0.551486
0.556503
0.562903
0.570829
0.578973
0.585663
0.590746
0.594559
0.597434
0.599501
0.600858
0.601472
0.601571
0.601434
0.530411
0.530491
0.531151
0.532747
0.535415
0.539019
0.543715
0.549812
0.557604
0.567257
0.577174
0.585338
0.591578
0.596296
0.599886
0.602488
0.604186
0.604941
0.60507
0.604925
0.518816
0.518878
0.519636
0.521544
0.524763
0.529149
0.534889
0.542357
0.551888
0.563655
0.575698
0.585601
0.593191
0.598975
0.603392
0.606624
0.608702
0.609606
0.609762
0.609606
0.505011
0.505061
0.505961
0.508279
0.512227
0.517648
0.524755
0.533989
0.545709
0.560053
0.574622
0.586554
0.595699
0.60271
0.608097
0.612039
0.614532
0.615587
0.615765
0.615593
0.488243
0.48828
0.489395
0.492292
0.497237
0.504058
0.512989
0.524525
0.539015
0.556505
0.574032
0.588288
0.599208
0.607614
0.61409
0.61884
0.621772
0.622971
0.623161
0.622969
0.467392
0.467428
0.468881
0.472643
0.479023
0.487816
0.499245
0.513819
0.531787
0.55305
0.574014
0.590903
0.603814
0.613783
0.621455
0.627096
0.630471
0.631791
0.63198
0.631766
0.440721
0.440775
0.442807
0.447972
0.456573
0.468265
0.483219
0.501844
0.524189
0.549941
0.57479
0.594554
0.609617
0.621285
0.63027
0.636831
0.640611
0.642006
0.642172
0.641934
0.405229
0.405379
0.408604
0.416361
0.428728
0.444851
0.464836
0.488778
0.516473
0.547399
0.576533
0.599376
0.616706
0.630155
0.640533
0.647982
0.652067
0.653458
0.653571
0.653309
0.355174
0.35613
0.362552
0.375626
0.394529
0.417494
0.444402
0.475059
0.509067
0.545763
0.579445
0.60546
0.62509
0.64034
0.652114
0.660329
0.664557
0.665837
0.665869
0.665584
0.281659
0.288831
0.303718
0.326766
0.355439
0.387581
0.422974
0.461396
0.502444
0.545441
0.584039
0.613502
0.635669
0.652929
0.666195
0.675142
0.679468
0.680646
0.680627
0.680378
0.202436
0.21946
0.243619
0.277295
0.316136
0.357613
0.401583
0.447986
0.496514
0.546571
0.591111
0.624987
0.650434
0.670208
0.685431
0.695068
0.699257
0.700225
0.700232
0.700089
0.136445
0.156533
0.188382
0.231043
0.278875
0.32915
0.381445
0.435689
0.491562
0.548483
0.598698
0.636692
0.665189
0.687213
0.703724
0.713681
0.717706
0.718628
0.718729
0.718654
0.0823951
0.104139
0.141489
0.190549
0.245473
0.303162
0.362825
0.424262
0.487033
0.550484
0.606076
0.647927
0.679167
0.703132
0.720876
0.7314
0.735851
0.736838
0.736932
0.736897
0.0373236
0.0602657
0.101405
0.155544
0.216174
0.279982
0.345966
0.413795
0.482878
0.552423
0.613082
0.658552
0.692384
0.718248
0.737306
0.748713
0.753508
0.754486
0.754626
0.754627
-0.00102584
0.0226043
0.0665981
0.124791
0.190214
0.25923
0.330705
0.404215
0.479037
0.554231
0.619632
0.668505
0.704775
0.732486
0.752738
0.764962
0.770168
0.771297
0.771477
0.7715
-0.0346587
-0.0105593
0.035717
0.0972284
0.166706
0.240247
0.316586
0.395212
0.475295
0.555742
0.625589
0.677637
0.716166
0.745455
0.766775
0.779704
0.78531
0.7867
0.786937
0.786971
-0.0650422
-0.0405275
0.00761973
0.0719691
0.144944
0.222444
0.30314
0.386428
0.471381
0.556764
0.630812
0.685837
0.726411
0.757058
0.779314
0.792789
0.79872
0.800349
0.800622
0.800651
-0.093112
-0.0682125
-0.0184457
0.048326
0.124382
0.205386
0.289999
0.377553
0.467052
0.55712
0.635209
0.693078
0.73554
0.767447
0.790428
0.804286
0.810468
0.812267
0.812559
0.812571
-0.119648
-0.0943169
-0.0430453
0.0258214
0.10461
0.188741
0.276891
0.368365
0.462124
0.556691
0.638742
0.699398
0.743676
0.776754
0.800315
0.814425
0.820764
0.82265
0.822924
0.822908
-0.144992
-0.119221
-0.066788
0.0041377
0.0853431
0.17228
0.263633
0.358715
0.45648
0.555401
0.641382
0.704839
0.75094
0.785112
0.809175
0.823389
0.82976
0.831689
0.831945
0.831896
-0.169552
-0.14321
-0.0897138
-0.0169686
0.0663912
0.155846
0.250107
0.348507
0.450034
0.553169
0.643099
0.709449
0.757447
0.792721
0.817169
0.83142
0.837788
0.839677
0.83993
0.839864
-0.193453
-0.166665
-0.111983
-0.0376425
0.0476476
0.139357
0.236246
0.33769
0.442736
0.549947
0.643866
0.713272
0.763327
0.799726
0.824502
0.83873
0.845034
0.846853
0.847038
0.846937
-0.216809
-0.18947
-0.133746
-0.0579606
0.0290643
0.122786
0.222034
0.326246
0.434563
0.545689
0.643639
0.716331
0.76866
0.806249
0.831322
0.845463
0.851586
0.853271
0.853383
0.853239
-0.239739
-0.211801
-0.155066
-0.0779453
0.0106198
0.10614
0.207494
0.314202
0.425524
0.540366
0.642373
0.718611
0.773507
0.812418
0.837766
0.851694
0.857504
0.858976
0.859006
0.858836
-0.262247
-0.233627
-0.175944
-0.097592
-0.00764746
0.0894512
0.192674
0.301605
0.415649
0.533963
0.640015
0.720063
0.777879
0.818374
0.844034
0.857565
0.86286
0.864037
0.863983
0.863798
-0.284172
-0.254909
-0.196317
-0.116871
-0.0256994
0.0727896
0.177639
0.288533
0.405001
0.526509
0.636508
0.720594
0.781733
0.824255
0.850426
0.863345
0.867777
0.868501
0.868352
0.868168
-0.30549
-0.275616
-0.216169
-0.135728
-0.0434768
0.056216
0.162482
0.275065
0.393661
0.518038
0.631812
0.720071
0.78496
0.830127
0.857312
0.869533
0.872576
0.872454
0.872143
0.872006
-0.326264
-0.295709
-0.235469
-0.154127
-0.0609156
0.0398152
0.147291
0.261308
0.381724
0.508621
0.625885
0.718347
0.787361
0.835877
0.864997
0.87699
0.878199
0.876333
0.875481
0.875604
-0.34632
-0.315162
-0.254159
-0.172003
-0.0779551
0.0236714
0.132163
0.247375
0.369309
0.498359
0.618722
0.715257
0.788661
0.841136
0.87338
0.886664
0.886717
0.882283
0.879351
0.878771
-0.36575
-0.333965
-0.272254
-0.189385
-0.0946282
0.00774066
0.117043
0.233206
0.356348
0.48718
0.610188
0.710525
0.788543
0.845349
0.881713
0.898695
0.900419
0.89457
0.885932
0.871424
-0.384478
-0.352102
-0.289873
-0.206469
-0.111222
-0.00830962
0.101514
0.218322
0.342307
0.474446
0.59963
0.703357
0.786402
0.847702
0.888097
0.910479
0.914757
0.902851
0.883422
0.870991
-0.402324
-0.369705
-0.306819
-0.22304
-0.127399
-0.0241334
0.0858046
0.203047
0.327493
0.460422
0.587134
0.693314
0.781494
0.847074
0.888137
0.910164
0.917654
0.895358
0.827417
0.796766
-0.41862
-0.388011
-0.322754
-0.238552
-0.142402
-0.0392262
0.070224
0.187611
0.312125
0.445235
0.572643
0.680118
0.772509
0.842841
0.87702
0.8929
0.884959
0.832032
0.763037
0.720527
-0.474907
-0.404149
-0.337291
-0.254092
-0.157812
-0.0550355
0.0547099
0.171735
0.29584
0.428439
0.555568
0.663186
0.755747
0.832631
0.838335
0.843612
0.797169
0.728341
0.652239
0.609839
-0.436003
-0.419798
-0.358945
-0.275211
-0.180424
-0.0777685
0.0309685
0.147312
0.270373
0.401467
0.526454
0.632031
0.716454
0.796915
0.786252
0.675956
0.572293
0.500108
0.427286
0.458575
-0.467422
-0.437755
-0.375895
-0.292928
-0.198122
-0.0956671
0.0133275
0.129022
0.250996
0.380275
0.502418
0.603658
0.679499
0.721873
0.674512
0.528375
0.402286
0.311905
0.213661
0.264404
-0.491636
-0.459015
-0.395849
-0.31266
-0.217761
-0.1154
-0.00648166
0.108376
0.228948
0.355839
0.474252
0.56941
0.636187
0.645148
0.540294
0.369118
0.217765
0.0999288
-0.0306308
0.00249618
-0.515367
-0.481165
-0.416782
-0.332674
-0.237621
-0.135381
-0.0269638
0.0869366
0.205921
0.330058
0.443861
0.531724
0.583102
0.561311
0.404661
0.209845
0.0206119
-0.146471
-0.334646
-0.352632
-0.538491
-0.50382
-0.438515
-0.353616
-0.258354
-0.156298
-0.0485015
0.0643263
0.181479
0.302492
0.41102
0.491421
0.524115
0.46649
0.275647
0.0666073
-0.149598
-0.338088
-0.579632
-0.879014
-0.56191
-0.527223
-0.461345
-0.375921
-0.280423
-0.178495
-0.071242
0.0404887
0.155715
0.273368
0.376353
0.448522
0.46113
0.352733
0.163521
-0.0448934
-0.248037
-0.419416
-0.487693
-0.567099
-0.586581
-0.551824
-0.485622
-0.399927
-0.304331
-0.202615
-0.0959925
0.0144763
0.127469
0.241252
0.338331
0.399759
0.387991
0.246068
0.0640325
-0.125402
-0.286915
-0.378847
-0.402625
-0.418601
-0.612818
-0.577937
-0.511522
-0.42572
-0.330208
-0.228868
-0.123109
-0.0141968
0.0961536
0.205433
0.29609
0.343919
0.314856
0.147127
-0.0260965
-0.190512
-0.315787
-0.354319
-0.367222
-0.368539
-0.640827
-0.605738
-0.539105
-0.45329
-0.357999
-0.257253
-0.152604
-0.0455752
0.0617015
0.165901
0.249261
0.283101
0.235208
0.0556782
-0.108596
-0.255819
-0.330872
-0.347867
-0.349251
-0.349075
-0.67067
-0.635283
-0.568393
-0.48263
-0.387711
-0.287752
-0.184476
-0.0796682
0.0241213
0.122708
0.19788
0.220385
0.136892
-0.0279956
-0.184171
-0.305499
-0.341656
-0.339821
-0.338737
-0.338129
-0.70206
-0.6664
-0.599278
-0.513646
-0.419252
-0.320303
-0.218683
-0.116442
-0.016552
0.0759346
0.142682
0.14855
0.0468908
-0.106142
-0.244095
-0.318629
-0.328891
-0.331615
-0.33234
-0.331976
-0.734435
-0.698623
-0.631501
-0.546104
-0.452424
-0.354736
-0.255061
-0.155755
-0.0601339
0.0258959
0.0840534
0.0746506
-0.0346027
-0.172099
-0.287175
-0.318137
-0.326576
-0.32858
-0.328526
-0.328226
-0.76733
-0.731408
-0.664605
-0.579601
-0.486874
-0.390717
-0.293312
-0.197304
-0.106331
-0.0267828
0.0208663
0.00304316
-0.110881
-0.224956
-0.316558
-0.33274
-0.326122
-0.325562
-0.325752
-0.325694
-0.799854
-0.764041
-0.697702
-0.613534
-0.522044
-0.427758
-0.332964
-0.240581
-0.154654
-0.0815149
-0.0439457
-0.0655729
-0.181622
-0.265533
-0.315495
-0.329221
-0.326826
-0.325365
-0.324982
-0.324926
-0.8304
-0.795322
-0.729836
-0.646968
-0.557156
-0.465136
-0.373336
-0.284852
-0.204257
-0.137622
-0.104086
-0.144081
-0.248542
-0.304753
-0.300086
-0.323361
-0.330758
-0.329603
-0.328901
-0.328388
-0.857406
-0.823402
-0.759866
-0.678714
-0.591154
-0.501893
-0.413525
-0.329187
-0.253911
-0.194055
-0.162225
-0.222813
-0.326319
-0.355593
-0.344046
-0.351491
-0.350629
-0.348967
-0.348062
-0.347278
-0.878738
-0.84649
-0.78574
-0.707358
-0.62275
-0.536849
-0.452392
-0.372474
-0.30225
-0.249213
-0.221959
-0.288256
-0.413261
-0.523149
-0.49926
-0.452568
-0.41606
-0.400328
-0.393085
-0.389321
-0.89217
-0.862642
-0.805547
-0.731038
-0.650424
-0.568671
-0.488652
-0.413391
-0.34792
-0.300613
-0.277182
-0.334023
-0.469418
-0.716429
-0.672468
-0.52969
-0.469296
-0.444828
-0.433023
-0.429697
-0.895065
-0.869614
-0.817373
-0.747918
-0.672481
-0.595937
-0.520938
-0.450571
-0.389518
-0.345126
-0.316145
-0.32368
-0.363005
-0.564626
-0.530398
-0.429082
-0.389551
-0.379145
-0.37818
-0.377767
-0.885351
-0.864788
-0.819044
-0.756405
-0.687443
-0.617159
-0.547946
-0.482717
-0.425327
-0.381893
-0.33849
-0.238369
-0.0412223
0.120148
-0.00832511
-0.185803
-0.28341
-0.310047
-0.320171
-0.322062
-0.860872
-0.845262
-0.808756
-0.755284
-0.694347
-0.63131
-0.568533
-0.508653
-0.455242
-0.413707
-0.358012
-0.211272
0.16822
0.586678
0.249203
-0.113761
-0.286892
-0.355384
-0.382652
-0.391086
-0.823951
-0.813799
-0.787116
-0.74467
-0.693135
-0.638144
-0.5821
-0.527552
-0.479007
-0.441987
-0.407349
-0.437217
-0.630884
-0.870918
-0.991734
-0.886683
-0.803479
-0.764311
-0.75382
-0.756207
-0.78099
-0.775222
-0.758848
-0.72719
-0.685587
-0.638278
-0.588627
-0.538935
-0.493994
-0.464089
-0.456919
-0.771347
-1.37828
-1.94679
-1.88555
-1.56008
-1.32327
-1.15588
-1.07046
-1.06325
-0.74149
-0.738068
-0.730023
-0.708245
-0.674541
-0.633495
-0.588517
-0.541421
-0.496443
-0.461198
-0.459217
-0.625739
-0.951952
-1.34412
-1.59282
-1.6367
-1.58965
-1.44267
-1.26918
-1.1712
-0.7127
-0.710585
-0.706669
-0.692436
-0.664466
-0.626784
-0.583584
-0.535458
-0.484377
-0.431958
-0.406556
-0.399406
-0.413019
-0.365114
-0.245325
-0.104647
-0.0581507
-0.0160137
0.0610537
0.0955544
-0.690476
-0.689742
-0.688621
-0.681129
-0.658178
-0.621757
-0.576915
-0.525315
-0.466983
-0.406109
-0.350754
-0.306703
-0.125378
0.235327
0.592395
0.875692
1.00423
1.07042
1.10131
1.10943
-0.676563
-0.676181
-0.675702
-0.672367
-0.654739
-0.61877
-0.570391
-0.513189
-0.448126
-0.371084
-0.284643
-0.1871
0.0696714
0.477249
0.880218
1.21593
1.41332
1.51455
1.55479
1.56257
-0.667393
-0.667147
-0.666615
-0.665821
-0.653335
-0.617782
-0.565498
-0.50224
-0.426028
-0.335945
-0.236237
-0.128972
0.125262
0.511256
0.890378
1.22171
1.43917
1.55121
1.59831
1.61302
-0.661321
-0.66133
-0.661126
-0.660887
-0.652345
-0.619679
-0.564948
-0.494458
-0.409284
-0.313319
-0.208787
-0.110546
0.111984
0.465872
0.803085
1.09346
1.30034
1.41497
1.47017
1.48821
-0.659833
-0.658459
-0.65427
-0.650342
-0.648938
-0.626296
-0.57061
-0.492399
-0.399507
-0.298329
-0.199843
-0.112541
0.0579846
0.367372
0.669917
0.924087
1.11553
1.22629
1.27861
1.29454
-0.682746
-0.678122
-0.667423
-0.660765
-0.665048
-0.650318
-0.585588
-0.494467
-0.392814
-0.287367
-0.193036
-0.111755
0.0155834
0.285972
0.532409
0.736258
0.897104
0.99224
1.03535
1.04728
-0.747645
-0.746874
-0.751478
-0.75897
-0.758963
-0.713727
-0.610347
-0.495059
-0.383221
-0.275506
-0.185649
-0.110451
-0.0140466
0.196832
0.394017
0.552781
0.671716
0.742979
0.775416
0.783902
-0.824961
-0.838861
-0.866295
-0.880298
-0.861345
-0.767486
-0.620683
-0.48414
-0.366771
-0.260953
-0.173483
-0.0971939
-0.0174775
0.126355
0.275285
0.391246
0.48184
0.536537
0.561634
0.567409
-0.792138
-0.807853
-0.835507
-0.849201
-0.822169
-0.717955
-0.574188
-0.444825
-0.336075
-0.240661
-0.15919
-0.0874056
-0.0148237
0.0848454
0.193484
0.279683
0.346479
0.387039
0.404415
0.406922
-0.581301
-0.5958
-0.617484
-0.630227
-0.610543
-0.540445
-0.452596
-0.366239
-0.286976
-0.211799
-0.143188
-0.0802137
-0.0227401
0.0380795
0.115604
0.182739
0.236822
0.268774
0.281217
0.281413
-0.298643
-0.305497
-0.318138
-0.33312
-0.337943
-0.326674
-0.301766
-0.267161
-0.226129
-0.177725
-0.127399
-0.0815923
-0.0409297
-0.00430007
0.0500755
0.101722
0.144096
0.169066
0.178925
0.178476
-0.0815447
-0.0843646
-0.0934082
-0.111682
-0.137958
-0.16177
-0.1759
-0.178364
-0.168154
-0.145695
-0.11619
-0.0873668
-0.0634346
-0.0476484
-0.0105492
0.0308671
0.0594573
0.0750304
0.0794801
0.0781593
0.0297137
0.0278757
0.0201262
0.00128416
-0.0295737
-0.0643003
-0.0942224
-0.114369
-0.122865
-0.119341
-0.107434
-0.0943598
-0.0850377
-0.0795028
-0.0602901
-0.0356889
-0.0169194
-0.00787467
-0.00550152
-0.00701817
0.0663022
0.0648746
0.058577
0.042774
0.0161286
-0.0158336
-0.0470719
-0.0732047
-0.0913
-0.100796
-0.103643
-0.103791
-0.104756
-0.10434
-0.0940322
-0.0825586
-0.0757436
-0.0744562
-0.0748415
-0.0758366
0.0669639
0.0658611
0.0611867
0.0494801
0.0294299
0.00394907
-0.023409
-0.0492611
-0.0713716
-0.0894501
-0.10398
-0.116709
-0.125869
-0.127752
-0.123274
-0.118979
-0.118369
-0.120134
-0.121479
-0.122177
0.0546286
0.0538379
0.0505657
0.0423637
0.0280308
0.00889065
-0.0132468
-0.0362059
-0.0588035
-0.081683
-0.105926
-0.131034
-0.149022
-0.149113
-0.144451
-0.142795
-0.144315
-0.147083
-0.148295
-0.148772
0.0398894
0.03935
0.037138
0.0315611
0.0215802
0.0076321
-0.00953816
-0.0288675
-0.0500897
-0.074727
-0.104948
-0.139111
-0.163296
-0.159397
-0.151988
-0.151604
-0.154154
-0.157195
-0.158307
-0.158581
0.0268673
0.0265175
0.0250719
0.0213669
0.0145489
0.00462005
-0.00822428
-0.0236728
-0.0419934
-0.0654269
-0.0968294
-0.13459
-0.158028
-0.150812
-0.144284
-0.143641
-0.147791
-0.151053
-0.152007
-0.152088
0.0167389
0.016504
0.0156092
0.0132598
0.00879279
0.00200332
-0.00716684
-0.0186928
-0.033051
-0.0522472
-0.0787245
-0.111041
-0.127855
-0.119422
-0.115124
-0.118558
-0.124244
-0.128029
-0.128972
-0.128955
0.00958491
0.00944688
0.00892198
0.00754405
0.00481002
0.000470055
-0.00557355
-0.0133533
-0.0230605
-0.0355249
-0.0516587
-0.0708797
-0.0786674
-0.0722087
-0.0726096
-0.0793841
-0.0863673
-0.0901909
-0.0910135
-0.0910185
0.00476096
0.00468764
0.00444098
0.00380229
0.00240187
6.2597e-06
-0.00342665
-0.00774476
-0.0125497
-0.0170776
-0.0199193
-0.0213899
-0.0172106
-0.0122384
-0.0210027
-0.0321484
-0.03966
-0.0428793
-0.043616
-0.0437544
0.00183798
0.0018073
0.00175232
0.00160328
0.00113074
0.000164069
-0.00125642
-0.00274291
-0.00329418
-0.000474026
0.00998031
0.027379
0.0490816
0.0448948
0.0290592
0.0147334
0.00737434
0.00520634
0.00442198
0.00391645
0.000258935
0.000244407
0.000287517
0.000432713
0.000550026
0.000504708
0.000413953
0.000840533
0.00315379
0.0109682
0.0303387
0.0609112
0.087832
0.0804198
0.0624641
0.0489577
0.0449916
0.0437322
0.0427571
0.0417243
-0.000405861
-0.000419073
-0.000343707
-7.60762e-05
0.00028809
0.000689535
0.00123169
0.00248324
0.00580172
0.0149084
0.0360404
0.0678103
0.0935523
0.083228
0.0680466
0.0603735
0.0585596
0.0593286
0.0579646
0.0567401
-0.000438109
-0.000446935
-0.00039509
-0.000195912
0.000141459
0.000552233
0.00110792
0.00218591
0.00476871
0.0114048
0.026806
0.049768
0.0677411
0.0587093
0.047934
0.0454877
0.0472873
0.0489554
0.0476527
0.0463278
-7.16433e-05
-8.18471e-05
-8.72847e-05
-9.12124e-05
-3.43868e-05
6.62983e-05
0.000170308
0.000359762
0.000752549
0.00177165
0.00438341
0.00946894
0.0146204
0.015986
0.0133678
0.0145107
0.0144063
0.0126298
0.0100013
0.00977005
-0.105057
0.0621003
0.257436
0.427975
0.564472
0.672251
0.761531
0.837486
0.871983
0.848685
0.19874
0.319719
0.44995
0.562603
0.657667
0.736426
0.800208
0.845468
0.868123
0.880192
0.418358
0.501414
0.590465
0.669175
0.736913
0.793602
0.838683
0.871615
0.895407
0.913386
0.579671
0.639095
0.701023
0.758305
0.808151
0.850487
0.885259
0.912995
0.935829
0.954128
0.705487
0.748751
0.794849
0.83879
0.877609
0.911517
0.940539
0.964692
0.985106
1.00294
0.810046
0.843013
0.881219
0.916851
0.949558
0.978874
1.00449
1.02602
1.04389
1.06124
0.902744
0.931492
0.965527
0.997718
1.02772
1.05494
1.07872
1.09846
1.11399
1.13106
0.991427
1.02067
1.05471
1.08679
1.11643
1.14304
1.16593
1.18444
1.19782
1.21485
1.0868
1.12003
1.1567
1.1903
1.22037
1.24657
1.26854
1.28583
1.2977
1.3151
1.20183
1.23967
1.27833
1.31259
1.34195
1.36671
1.38709
1.40299
1.41446
1.43253
1.34679
1.38535
1.4215
1.45219
1.47788
1.49998
1.51904
1.53458
1.54701
1.565
1.52189
1.55351
1.5797
1.60215
1.62213
1.64086
1.65858
1.67506
1.69041
1.70848
1.71051
1.72771
1.74275
1.75899
1.7749
1.78943
1.80264
1.81657
1.83411
1.85426
1.89223
1.90177
1.91332
1.92413
1.93341
1.943
1.95378
1.96515
1.97651
1.99187
2.09948
2.10314
2.08819
2.07338
2.06711
2.07278
2.09126
2.12158
2.15375
2.18041
2.40579
2.27093
2.19429
2.15191
2.13449
2.13846
2.16585
2.22227
2.32489
2.54925
0.706535
0.704406
0.699922
0.691296
0.679069
0.666937
0.656702
0.6488
0.643174
0.639908
0.639538
0.642261
0.647353
0.654565
0.663945
0.67548
0.688127
0.699159
0.705269
0.708322
0.630993
0.63684
0.643172
0.647661
0.650128
0.6498
0.647057
0.64324
0.63972
0.637447
0.637284
0.639465
0.643114
0.647392
0.65119
0.653067
0.652126
0.648641
0.643476
0.636855
0.622574
0.62487
0.628273
0.631266
0.633337
0.634828
0.635577
0.635252
0.634216
0.633318
0.633475
0.634883
0.636682
0.637975
0.638145
0.637246
0.635691
0.633351
0.630084
0.627162
0.617073
0.61816
0.61999
0.622365
0.624384
0.625805
0.626818
0.627559
0.627948
0.628154
0.628623
0.629408
0.629986
0.630037
0.629612
0.628753
0.627276
0.625186
0.623095
0.621711
0.611883
0.612546
0.613652
0.615352
0.617128
0.618752
0.620038
0.621042
0.621909
0.622679
0.623383
0.623907
0.624076
0.623889
0.623306
0.622238
0.6208
0.619249
0.617925
0.617144
0.606924
0.607385
0.608168
0.609461
0.610941
0.612449
0.613902
0.615185
0.616302
0.617333
0.618217
0.61875
0.618865
0.618566
0.617848
0.616841
0.615702
0.614559
0.613638
0.61312
0.602116
0.602461
0.603069
0.604132
0.605417
0.60678
0.608204
0.609632
0.610982
0.612232
0.613303
0.613952
0.61409
0.613782
0.613156
0.612358
0.611489
0.61061
0.60993
0.60955
0.597407
0.597675
0.598165
0.599067
0.600227
0.60151
0.602887
0.604354
0.605866
0.607349
0.608648
0.609464
0.609716
0.609554
0.609127
0.608538
0.607867
0.607211
0.606711
0.606421
0.592716
0.592929
0.593336
0.594127
0.595204
0.596437
0.597801
0.59931
0.600947
0.602656
0.604229
0.605289
0.605765
0.60583
0.605622
0.605244
0.604772
0.604302
0.60394
0.603713
0.587957
0.588129
0.588478
0.589195
0.590224
0.591432
0.59282
0.594406
0.59619
0.598141
0.600038
0.601435
0.602215
0.602551
0.60258
0.60242
0.602149
0.601846
0.601597
0.601416
0.583045
0.583184
0.583491
0.584163
0.585173
0.586403
0.587853
0.589557
0.59154
0.593785
0.596079
0.597896
0.599042
0.599691
0.599989
0.600058
0.599984
0.599839
0.599686
0.59954
0.577894
0.578007
0.578285
0.578937
0.579964
0.58126
0.582815
0.584691
0.586939
0.589559
0.592345
0.594667
0.596242
0.597251
0.59785
0.598163
0.598291
0.598305
0.598235
0.598117
0.572413
0.572502
0.572765
0.573421
0.5745
0.575904
0.577619
0.579735
0.582327
0.585426
0.588817
0.591744
0.593826
0.595248
0.596184
0.596785
0.597133
0.597293
0.597296
0.597199
0.566497
0.566566
0.566821
0.567504
0.568674
0.570233
0.572172
0.574606
0.577637
0.581337
0.58547
0.589126
0.591809
0.593716
0.595038
0.595956
0.596545
0.596862
0.596933
0.596855
0.560025
0.560073
0.56033
0.561063
0.562363
0.564133
0.566368
0.56921
0.572796
0.577237
0.582274
0.586813
0.590215
0.592699
0.59447
0.595738
0.596608
0.597094
0.597233
0.59717
0.55285
0.552879
0.553141
0.553946
0.555422
0.557466
0.560082
0.563444
0.56773
0.573088
0.57923
0.584829
0.589087
0.592249
0.594554
0.596235
0.597423
0.59809
0.598297
0.598245
0.544788
0.544805
0.545067
0.54597
0.547674
0.55006
0.553165
0.557189
0.562354
0.568847
0.576332
0.583205
0.588477
0.592435
0.59537
0.597552
0.599097
0.599962
0.600238
0.600197
0.535533
0.535519
0.535843
0.536881
0.538871
0.541707
0.54544
0.550303
0.556571
0.564473
0.573593
0.581982
0.588453
0.593348
0.59702
0.599793
0.60175
0.602835
0.603183
0.603149
0.524816
0.524776
0.525143
0.526374
0.52873
0.532146
0.536678
0.5426
0.550247
0.55988
0.570979
0.581184
0.589074
0.595082
0.599624
0.603074
0.605509
0.606837
0.607258
0.607228
0.512163
0.512097
0.51254
0.514018
0.516854
0.521029
0.526596
0.533887
0.543287
0.55507
0.56856
0.580905
0.590441
0.597735
0.603296
0.607529
0.610508
0.612097
0.61259
0.61256
0.496942
0.496846
0.497411
0.499236
0.502716
0.507906
0.514848
0.523928
0.535568
0.550019
0.566375
0.581223
0.592654
0.601416
0.608162
0.613285
0.616866
0.618725
0.619283
0.619248
0.478231
0.478108
0.478869
0.481201
0.485588
0.492187
0.501011
0.51248
0.527008
0.544758
0.564516
0.582236
0.595824
0.606243
0.614297
0.620432
0.624661
0.626788
0.627395
0.627348
0.454634
0.454492
0.455582
0.458703
0.464452
0.473112
0.484598
0.499314
0.517568
0.539355
0.563093
0.584066
0.600038
0.612299
0.62178
0.62903
0.633927
0.636292
0.636923
0.636855
0.423856
0.423733
0.425426
0.429913
0.437941
0.44981
0.465215
0.484404
0.507455
0.534124
0.562406
0.58693
0.605445
0.619654
0.630692
0.639104
0.644615
0.647147
0.647759
0.64766
0.381788
0.381825
0.384853
0.392189
0.404429
0.421539
0.442733
0.467932
0.496933
0.529283
0.562601
0.590932
0.61211
0.628342
0.64097
0.650556
0.656541
0.659104
0.65964
0.659502
0.32074
0.321917
0.32934
0.343033
0.362969
0.388409
0.417754
0.450619
0.486687
0.525405
0.564064
0.596258
0.620084
0.638298
0.652452
0.663027
0.669312
0.671685
0.672046
0.671871
0.248089
0.249814
0.264046
0.287616
0.318373
0.353669
0.39194
0.433009
0.476683
0.522462
0.567385
0.604454
0.631815
0.652656
0.66873
0.680541
0.687101
0.689401
0.689749
0.689667
0.173003
0.179112
0.200155
0.233867
0.274946
0.319821
0.366983
0.416317
0.467703
0.520686
0.572088
0.614224
0.645249
0.668945
0.687246
0.700028
0.706496
0.708477
0.708712
0.708687
0.111595
0.119994
0.14561
0.186309
0.235437
0.288483
0.343672
0.400745
0.459491
0.519405
0.577006
0.623919
0.658319
0.684465
0.704411
0.718043
0.724552
0.726404
0.726829
0.726878
0.06162
0.0706135
0.0997734
0.145692
0.200929
0.260558
0.32253
0.386432
0.451889
0.518284
0.581739
0.633152
0.67069
0.699111
0.720633
0.735209
0.742103
0.744456
0.744989
0.745071
0.0196946
0.0289772
0.0605969
0.110514
0.170755
0.235847
0.303568
0.373439
0.44493
0.517288
0.586218
0.64186
0.68235
0.712959
0.736117
0.751702
0.759337
0.762052
0.762668
0.762766
-0.0165267
-0.00711787
0.0263648
0.0794892
0.143861
0.213615
0.286344
0.361498
0.438441
0.516284
0.590323
0.649925
0.693187
0.725809
0.750437
0.766989
0.775366
0.778327
0.779034
0.779134
-0.0486922
-0.0392291
-0.00430872
0.0515267
0.119367
0.193135
0.270289
0.350192
0.43212
0.515055
0.59389
0.657211
0.703034
0.737439
0.763297
0.780684
0.789707
0.79296
0.793693
0.79378
-0.0780514
-0.0685306
-0.032433
0.0257435
0.0965727
0.173851
0.254937
0.339144
0.425665
0.513376
0.596764
0.663624
0.711823
0.747846
0.774731
0.792777
0.802241
0.805728
0.806526
0.806608
-0.105446
-0.0958657
-0.0587063
0.00146462
0.0749594
0.155342
0.239941
0.328058
0.418834
0.511058
0.598841
0.669138
0.719619
0.757135
0.784963
0.803491
0.813207
0.816867
0.817702
0.817764
-0.131431
-0.121764
-0.08361
-0.0217438
0.0541468
0.13729
0.225053
0.316735
0.411461
0.507978
0.600057
0.673765
0.726501
0.765459
0.794133
0.812995
0.822813
0.82655
0.827395
0.827421
-0.156481
-0.146623
-0.107618
-0.0441248
0.0338743
0.119485
0.210105
0.30504
0.403441
0.504049
0.60035
0.677511
0.732552
0.772965
0.802382
0.821466
0.831316
0.835033
0.835859
0.835852
-0.180823
-0.170731
-0.130945
-0.0658781
0.0139802
0.101797
0.194991
0.292895
0.394698
0.499203
0.599674
0.680378
0.737862
0.779809
0.809926
0.829147
0.838976
0.842636
0.843406
0.843376
-0.204554
-0.194237
-0.153597
-0.0871654
-0.0056255
0.0841681
0.179668
0.280261
0.385203
0.493392
0.597977
0.682367
0.742502
0.786107
0.816906
0.836213
0.845959
0.849492
0.850174
0.850116
-0.227805
-0.217169
-0.175768
-0.108037
-0.0249836
0.0665704
0.16413
0.267145
0.374958
0.486604
0.595211
0.683454
0.746516
0.791957
0.823464
0.842785
0.852333
0.855658
0.856216
0.856111
-0.25055
-0.239621
-0.197453
-0.128519
-0.0440941
0.049025
0.148416
0.253587
0.363992
0.478834
0.59134
0.683584
0.749906
0.797448
0.829757
0.848997
0.858161
0.861152
0.861558
0.861416
-0.272831
-0.26158
-0.218596
-0.148585
-0.0629294
0.0315716
0.132573
0.239654
0.352366
0.47011
0.586336
0.682691
0.752611
0.802641
0.836001
0.855091
0.863596
0.866053
0.866268
0.866095
-0.294461
-0.28296
-0.239189
-0.16819
-0.0814349
0.014285
0.116671
0.225421
0.340156
0.460498
0.580189
0.68069
0.754522
0.807541
0.842439
0.861451
0.868922
0.87047
0.870379
0.870186
-0.315581
-0.303721
-0.259209
-0.187306
-0.099575
-0.00279249
0.100807
0.210972
0.327454
0.450082
0.572917
0.677477
0.755476
0.812037
0.849224
0.868643
0.874811
0.874766
0.873965
0.873738
-0.336019
-0.323833
-0.278621
-0.205883
-0.117267
-0.0195731
0.0850648
0.196431
0.314374
0.438935
0.564567
0.672958
0.755272
0.815873
0.85625
0.877233
0.882598
0.880257
0.877591
0.876516
-0.355834
-0.343335
-0.297368
-0.223866
-0.134473
-0.0359857
0.0695291
0.181879
0.301031
0.427197
0.555217
0.667041
0.753687
0.818652
0.862954
0.88715
0.89379
0.89021
0.883571
0.874825
-0.37494
-0.362185
-0.315545
-0.24141
-0.1514
-0.0523078
0.0538639
0.166915
0.28697
0.414361
0.544326
0.659148
0.750188
0.819932
0.868531
0.897444
0.908519
0.905835
0.895739
0.889746
-0.393286
-0.380303
-0.33314
-0.258476
-0.168047
-0.0685372
0.0380865
0.151522
0.272152
0.400314
0.531705
0.648907
0.74403
0.818935
0.870907
0.903434
0.917041