/*--------------------------------*- C++ -*----------------------------------*\
  =========                 |
  \\      /  F ield         | OpenFOAM: The Open Source CFD Toolbox
   \\    /   O peration     | Website:  https://openfoam.org
    \\  /    A nd           | Version:  9
     \\/     M anipulation  |
\*---------------------------------------------------------------------------*/
FoamFile
{
    format      ascii;
    class       surfaceScalarField;
    location    "49";
    object      phi;
}
// * * * * * * * * * * * * * * * * * * * * * * * * * * * * * * * * * * * * * //

dimensions      [0 3 -1 0 0 0 0];

internalField   nonuniform List<scalar> 
17370
(
-0.0916071
0.0960093
0.284609
-0.0775947
0.05942
0.36495
-0.043043
0.0316241
0.427587
-0.0223207
0.0162684
0.505304
-0.0116752
0.0088011
0.602276
-0.00658991
0.00510596
0.720541
-0.00387122
0.00299291
0.863785
-0.00222129
0.00164352
1.03603
-0.00111218
0.000691479
1.24292
-0.000281071
-0.000111114
1.49158
0.000498186
-0.000909733
1.4916
0.00131234
-0.00181599
1.24319
0.00236705
-0.0031124
1.03638
0.00397281
-0.0051951
0.864129
0.0066718
-0.00887523
0.721261
0.0117393
-0.0163177
0.603793
0.022355
-0.0316424
0.508727
0.0430446
-0.0594117
0.432535
0.0775897
-0.0960043
0.36519
0.0916205
0.19739
-0.127089
0.0880195
0.0390696
-0.364353
0.354027
-0.0714784
0.081805
-0.446654
0.454251
-0.0791736
0.0715769
-0.521011
0.529106
-0.0637269
0.0556313
-0.61299
0.620758
-0.0482459
0.0404779
-0.727163
0.733682
-0.0338669
0.0273474
-0.86758
0.872429
-0.0221455
0.0172963
-1.03856
1.0419
-0.0136
0.0102616
-1.24472
1.24712
-0.0077111
0.00530573
-1.49284
1.49485
-0.00334196
0.00132772
-1.49269
1.49451
0.000492057
-0.00231137
-1.24411
1.24602
0.0042834
-0.00619364
-1.03761
1.04009
0.00852923
-0.0110099
-0.866187
0.86982
0.0142716
-0.0179046
-0.724594
0.729753
0.0226963
-0.0278547
-0.609065
0.615636
0.034331
-0.0409015
-0.515124
0.522461
0.048622
-0.0559586
-0.439879
0.44766
0.063983
-0.0717637
-0.374709
0.377355
0.0792633
-0.0819097
-0.256899
0.224439
0.0715601
-0.0390999
-0.0688065
0.0591925
0.00961405
-0.052119
0.0589492
-0.374834
0.368004
-0.0581046
0.0542652
-0.453944
0.457783
-0.0487809
0.0442241
-0.527614
0.532171
-0.0396769
0.0357833
-0.620798
0.624692
-0.0315729
0.0275805
-0.734656
0.738648
-0.0232266
0.0193413
-0.873951
0.877836
-0.0152973
0.0118407
-1.04336
1.04681
-0.00832166
0.00528958
-1.24865
1.25168
-0.00208227
-0.000898444
-1.49694
1.49992
0.00385741
-0.00700413
-1.49742
1.50057
0.00994831
-0.0133496
-1.25007
1.25347
0.0166884
-0.0206009
-1.04565
1.04956
0.0243735
-0.0286178
-0.877139
0.881383
0.0325227
-0.0366458
-0.738984
0.743107
0.0404654
-0.0449385
-0.625974
0.630447
0.0494335
-0.0548575
-0.535018
0.540442
0.0586277
-0.0593899
-0.458078
0.458841
0.0524467
-0.0320613
-0.336768
0.316383
0.00967238
-0.068666
0.0589936
-0.0534024
0.0492891
0.00411337
-0.0332552
0.0436844
-0.358554
0.348125
-0.0473654
0.0467829
-0.459575
0.460157
-0.0438591
0.0406509
-0.536127
0.539336
-0.0369781
0.0336266
-0.628389
0.631741
-0.0299959
0.0267573
-0.742026
0.745265
-0.0233071
0.0201113
-0.881327
0.884523
-0.01652
0.0131703
-1.05024
1.05359
-0.00947392
0.00607124
-1.25494
1.25834
-0.00228183
-0.00133385
-1.50327
1.50689
0.00491887
-0.00861955
-1.50407
1.50777
0.0119014
-0.0154357
-1.25703
1.26057
0.0186223
-0.0220277
-1.05327
1.05668
0.0250598
-0.0283474
-0.884989
0.888276
0.0314548
-0.0349575
-0.746789
0.750292
0.0382003
-0.0417595
-0.634568
0.638128
0.0448692
-0.0476825
-0.544588
0.547401
0.0481509
-0.0443111
-0.456959
0.453119
0.0336868
-0.0163762
-0.297069
0.279758
0.00417775
-0.0531449
0.0489671
-0.0461186
0.043561
0.00255757
-0.0230611
0.0334178
-0.33753
0.327173
-0.0391588
0.0401133
-0.459906
0.458952
-0.0388678
0.0365442
-0.541991
0.544315
-0.0339065
0.0313636
-0.634705
0.637248
-0.0283903
0.0255458
-0.748346
0.75119
-0.0223116
0.0193007
-0.887573
0.890584
-0.0159529
0.0128222
-1.05676
1.05989
-0.00926986
0.00587405
-1.26173
1.26513
-0.00196778
-0.00182686
-1.51062
1.51441
0.00558266
-0.00937178
-1.51155
1.51534
0.0126102
-0.0159516
-1.26403
1.26737
0.0188689
-0.0219733
-1.05988
1.06299
0.0247658
-0.027777
-0.891472
0.894484
0.030439
-0.0332339
-0.753471
0.756266
0.0356274
-0.0381138
-0.641082
0.643569
0.0403088
-0.0413839
-0.549239
0.550314
0.0402532
-0.0342543
-0.447999
0.442
0.023614
-0.0103704
-0.264575
0.251332
0.00263729
-0.0457248
0.0430875
-0.0414412
0.0396388
0.00180241
-0.0169593
0.0262529
-0.317299
0.308005
-0.032858
0.0349856
-0.457389
0.455261
-0.0345577
0.0328636
-0.546343
0.548037
-0.0306401
0.0285154
-0.639556
0.64168
-0.0260812
0.0237061
-0.753785
0.75616
-0.0208952
0.0181524
-0.893434
0.896177
-0.014973
0.0119439
-1.06292
1.06595
-0.00848515
0.00517531
-1.26844
1.27175
-0.00134111
-0.00240199
-1.51818
1.52192
0.00609532
-0.00978153
-1.51908
1.52277
0.0128911
-0.0160822
-1.27065
1.27384
0.0188413
-0.0217116
-1.06601
1.06888
0.0241748
-0.0266978
-0.897268
0.899791
0.028836
-0.0310396
-0.758708
0.760912
0.0329736
-0.0350022
-0.645798
0.647826
0.0365082
-0.0367035
-0.550899
0.551094
0.0343042
-0.027322
-0.435415
0.428433
0.0176491
-0.0074686
-0.239763
0.229582
0.00190009
-0.0408799
0.0389798
-0.0380875
0.0367336
0.00135391
-0.0129624
0.0209708
-0.299359
0.29135
-0.0277493
0.0306802
-0.452703
0.449772
-0.0308951
0.0297764
-0.549472
0.550591
-0.0277817
0.0258585
-0.643733
0.645656
-0.0236497
0.0215111
-0.758396
0.760535
-0.0190074
0.0165446
-0.898719
0.901181
-0.013633
0.0107868
-1.06884
1.07169
-0.00746729
0.00425954
-1.27498
1.27819
-0.000535435
-0.00308788
-1.52558
1.52921
0.00664938
-0.0101885
-1.52638
1.52992
0.0131475
-0.0161346
-1.27696
1.27994
0.0186441
-0.021168
-1.0716
1.07412
0.0232788
-0.0254178
-0.902107
0.904246
0.0272542
-0.0291679
-0.762957
0.764871
0.0308504
-0.0326138
-0.649695
0.651459
0.0334592
-0.0329195
-0.550927
0.550388
0.0296001
-0.0223057
-0.421239
0.413945
0.0138111
-0.00576434
-0.220571
0.212524
0.00147289
-0.0373216
0.0358487
-0.0355509
0.0345071
0.00104375
-0.0101399
0.0169251
-0.283979
0.277194
-0.0234573
0.0268548
-0.446591
0.443194
-0.0276514
0.0269678
-0.551487
0.55217
-0.0252096
0.0234324
-0.647544
0.649321
-0.0213772
0.0193784
-0.762599
0.764598
-0.0170265
0.014718
-0.903499
0.905807
-0.0120024
0.00933933
-1.07438
1.07704
-0.00620537
0.00314503
-1.28128
1.28434
0.000431808
-0.00391222
-1.53273
1.53621
0.0073171
-0.0106653
-1.53336
1.53671
0.0134175
-0.0161389
-1.28282
1.28554
0.0183858
-0.0206232
-1.07651
1.07875
0.022497
-0.0243968
-0.906276
0.908176
0.0260204
-0.0277083
-0.766666
0.768354
0.0291859
-0.0306225
-0.653074
0.654511
0.0309612
-0.0297108
-0.549504
0.548254
0.0257793
-0.0185707
-0.40667
0.399462
0.0111772
-0.00463184
-0.2053
0.198754
0.00118819
-0.0345358
0.0333476
-0.0335898
0.0327754
0.00081443
-0.00804905
0.0137626
-0.270975
0.265261
-0.019822
0.023429
-0.439684
0.436077
-0.0247138
0.0242839
-0.55276
0.55319
-0.0228055
0.021145
-0.651088
0.652749
-0.0191932
0.0172895
-0.766543
0.768447
-0.0150445
0.0128373
-0.907998
0.910205
-0.0102377
0.00769602
-1.07957
1.08211
-0.00471694
0.00180628
-1.28728
1.29019
0.00159878
-0.0049113
-1.53958
1.5429
0.0081316
-0.0112586
-1.53994
1.54307
0.0137929
-0.0162697
-1.28815
1.29063
0.018302
-0.0203147
-1.0809
1.08291
0.0219871
-0.0236738
-0.909987
0.911674
0.025112
-0.0266064
-0.769948
0.771443
0.0278926
-0.0289601
-0.655736
0.656804
0.0289376
-0.0270279
-0.546678
0.544769
0.0227112
-0.0157862
-0.39239
0.385465
0.00931797
-0.00384544
-0.192796
0.187324
0.00099052
-0.0322719
0.0312814
-0.0320583
0.0314207
0.000637616
-0.00643993
0.0112378
-0.260034
0.255236
-0.0167161
0.0203348
-0.432465
0.428846
-0.0219537
0.0217558
-0.553542
0.55374
-0.0205173
0.0189232
-0.654426
0.65602
-0.017035
0.0151893
-0.770316
0.772162
-0.013015
0.0108794
-0.912299
0.914435
-0.00836462
0.00590785
-1.08453
1.08698
-0.00303536
0.000247696
-1.29298
1.29577
0.00299645
-0.00612746
-1.54608
1.54921
0.00914447
-0.0120466
-1.54607
1.54898
0.0143793
-0.0166388
-1.29302
1.29528
0.0184727
-0.0202693
-1.08485
1.08664
0.0217493
-0.0232404
-0.913287
0.914778
0.0245174
-0.0258454
-0.772867
0.774195
0.0269913
-0.0276596
-0.65765
0.658318
0.0272789
-0.0248284
-0.542605
0.540154
0.0202858
-0.0137162
-0.378729
0.372159
0.00798795
-0.00329049
-0.182279
0.177582
0.000851673
-0.0303727
0.029521
-0.030862
0.0303668
0.000495196
-0.00514816
0.00915646
-0.250859
0.246851
-0.0140076
0.0174898
-0.425302
0.42182
-0.0193077
0.0193149
-0.553881
0.553874
-0.01829
0.0167442
-0.657663
0.659208
-0.0148932
0.0130745
-0.773987
0.775805
-0.0109296
0.00882661
-0.916465
0.918568
-0.00635889
0.00395904
-1.08932
1.09172
-0.00116522
-0.0015301
-1.29844
1.30114
0.00463935
-0.00761038
-1.55222
1.55519
0.010443
-0.0131389
-1.55176
1.55445
0.0152813
-0.0173317
-1.29746
1.29951
0.0189771
-0.0205716
-1.08838
1.08998
0.0218744
-0.0231842
-0.916205
0.917515
0.024308
-0.0254696
-0.775455
0.776616
0.0264241
-0.0267243
-0.658774
0.659074
0.0259672
-0.0230667
-0.537489
0.534589
0.0184038
-0.0121909
-0.365788
0.359575
0.00703813
-0.00290099
-0.1732
0.169062
0.000755713
-0.0287292
0.0279735
-0.0299388
0.0295636
0.000375187
-0.00406839
0.00738382
-0.243211
0.239896
-0.0115959
0.014831
-0.418475
0.41524
-0.0167194
0.0168907
-0.55384
0.553669
-0.0159589
0.014494
-0.660795
0.662259
-0.0126477
0.0108224
-0.777616
0.779441
-0.00867317
0.00657619
-0.920568
0.922665
-0.00413029
0.00176432
-1.094
1.09637
0.000969848
-0.00359411
-1.30373
1.30635
0.00659294
-0.00942292
-1.55805
1.56088
0.0120855
-0.0145818
-1.55703
1.55953
0.0165319
-0.0183665
-1.30147
1.3033
0.0198163
-0.0212034
-1.09151
1.0929
0.0223275
-0.0234613
-0.918776
0.91991
0.024442
-0.0254434
-0.777727
0.778728
0.0261532
-0.0261606
-0.659227
0.659235
0.0250103
-0.0217248
-0.531503
0.528217
0.0169972
-0.0110964
-0.353547
0.347646
0.00637589
-0.00263606
-0.165157
0.161417
0.000692474
-0.0272619
0.0265695
-0.0292484
0.0289801
0.000268233
-0.00312275
0.00581332
-0.236913
0.234222
-0.00938698
0.0122938
-0.412189
0.409283
-0.0141431
0.0144119
-0.553513
0.553245
-0.0135369
0.0121289
-0.663788
0.665196
-0.0102703
0.00841465
-0.781263
0.783119
-0.00622961
0.00410468
-0.924659
0.926784
-0.00163845
-0.000725861
-1.09862
1.10098
0.00344431
-0.00602206
-1.30887
1.31145
0.00893157
-0.0116371
-1.56359
1.5663
0.0141397
-0.0164409
-1.5619
1.5642
0.0182038
-0.0198283
-1.30506
1.30668
0.0210864
-0.0222653
-1.09425
1.09542
0.0232054
-0.0241587
-0.920997
0.92195
0.0249937
-0.025828
-0.779657
0.780491
0.0262788
-0.0260323
-0.659106
0.658859
0.0244599
-0.0208037
-0.524769
0.521113
0.0160183
-0.010356
-0.341905
0.336243
0.0059418
-0.0024695
-0.157846
0.154374
0.0006553
-0.0259098
0.0252545
-0.0287681
0.0286013
0.000166809
-0.00224815
0.00435231
-0.231844
0.22974
-0.00728091
0.00978615
-0.406602
0.404096
-0.0114862
0.0117755
-0.553039
0.55275
-0.0109308
0.00955013
-0.666696
0.668077
-0.00766102
0.00575015
-0.784974
0.786884
-0.00349583
0.00131068
-0.928807
0.930992
0.00120786
-0.00360908
-1.10325
1.10565
0.00633628
-0.00889502
-1.31393
1.31648
0.0117435
-0.0143466
-1.56889
1.57149
0.0167032
-0.0188148
-1.56637
1.56848
0.0203893
-0.0217995
-1.30822
1.30963
0.0228616
-0.0238237
-1.09657
1.09754
0.0245632
-0.0253099
-0.922861
0.923607
0.0259734
-0.0266455
-0.781235
0.781907
0.0267976
-0.0262135
-0.658387
0.657803
0.0242319
-0.0202399
-0.517334
0.513342
0.015394
-0.00989568
-0.330714
0.325216
0.00568359
-0.00237778
-0.151022
0.147716
0.000637647
-0.0246236
0.023986
-0.02849
0.0284252
6.4791e-05
-0.00139632
0.00292782
-0.227939
0.226408
-0.0051954
0.0072338
-0.401852
0.399814
-0.00867861
0.0089023
-0.552583
0.552359
-0.00803443
0.00663713
-0.669592
0.670989
-0.00467119
0.00267086
-0.7888
0.7908
-0.000313355
-0.00195995
-0.933067
0.935341
0.00456134
-0.00702138
-1.10795
1.11041
0.00978889
-0.0123513
-1.31895
1.32151
0.0151529
-0.0176527
-1.57398
1.57648
0.0198545
-0.0217636
-1.57046
1.57237
0.0231349
-0.0243096
-1.31094
1.31212
0.0251501
-0.0258671
-1.09847
1.09918
0.0263872
-0.0269182
-0.924326
0.924857
0.0274214
-0.0279119
-0.782443
0.782934
0.0277806
-0.0268097
-0.656954
0.655983
0.0244059
-0.0200602
-0.509244
0.504899
0.0151132
-0.00968808
-0.31982
0.314394
0.00558062
-0.00235274
-0.144492
0.141264
0.000638007
-0.0233661
0.0227281
-0.0284168
0.0284605
-4.36927e-05
-0.000518569
0.00147039
-0.225182
0.22423
-0.00304823
0.00455609
-0.398068
0.39656
-0.00564806
0.00573023
-0.552318
0.552236
-0.00479445
0.00333726
-0.672569
0.674026
-0.00127356
-0.000846897
-0.792805
0.794925
0.00334905
-0.00575052
-0.937503
0.939905
0.00848435
-0.0110468
-1.11277
1.11533
0.0138958
-0.0164924
-1.32398
1.32657
0.0192738
-0.0216891
-1.57886
1.58127
0.0237438
-0.0254469
-1.57413
1.57583
0.0266076
-0.0275382
-1.31318
1.31411
0.0281503
-0.0286085
-1.09989
1.10034
0.028888
-0.0291753
-0.925365
0.925653
0.0294804
-0.0296981
-0.783164
0.783382
0.029305
-0.0278607
-0.654724
0.65328
0.0249945
-0.0202624
-0.500468
0.495736
0.0151599
-0.00971358
-0.309039
0.303592
0.00561884
-0.00238815
-0.138083
0.134852
0.000654651
-0.0221018
0.0214472
-0.0285596
0.0287194
-0.000159766
0.000409739
-6.96168e-05
-0.223599
0.223259
-0.000766992
0.00166025
-0.395377
0.394484
-0.00228922
0.00214158
-0.552405
0.552553
-0.00108275
-0.000493894
-0.675717
0.677294
0.00270105
-0.00498595
-0.797051
0.799336
0.00768081
-0.0102556
-0.942198
0.944773
0.013165
-0.015865
-1.1178
1.1205
0.0188297
-0.0214886
-1.32908
1.33174
0.0242754
-0.0266178
-1.58357
1.58592
0.028522
-0.0299982
-1.57738
1.57886
0.0309245
-0.0315697
-1.31491
1.31556
0.0319186
-0.0321001
-1.10077
1.10096
0.0321281
-0.0321489
-0.925912
0.925933
0.0322319
-0.0321246
-0.783245
0.783138
0.0313983
-0.0294027
-0.651568
0.649572
0.0260282
-0.0208603
-0.490933
0.485765
0.015531
-0.00996094
-0.298179
0.292609
0.00578865
-0.00247916
-0.131637
0.128327
0.000686061
-0.0207993
0.0201132
-0.0289587
0.0292583
-0.000299661
0.00140926
-0.00172265
-0.223279
0.223593
0.00173424
-0.0015659
-0.393913
0.393745
0.00153437
-0.00202327
-0.553065
0.553554
0.00330032
-0.00506065
-0.679172
0.680932
0.00748318
-0.00998342
-0.801623
0.804123
0.0129184
-0.0157037
-0.947234
0.950019
0.0188283
-0.0217032
-1.1231
1.12598
0.0248217
-0.0275678
-1.33431
1.33705
0.0303664
-0.0326233
-1.58813
1.59039
0.0343494
-0.035559
-1.58015
1.58136
0.036221
-0.0365437
-1.31604
1.31636
0.0365955
-0.0364606
-1.10106
1.10093
0.0362014
-0.035926
-0.925902
0.925627
0.035786
-0.0352661
-0.782576
0.782056
0.0341393
-0.0315111
-0.647372
0.644744
0.0275676
-0.0218835
-0.480532
0.474848
0.0162348
-0.0104292
-0.287033
0.281228
0.00608795
-0.00262472
-0.125003
0.121539
0.000732052
-0.0194294
0.0186974
-0.0296302
0.0301072
-0.000477007
0.00270191
-0.00376809
-0.224293
0.225359
0.00465242
-0.00528008
-0.393903
0.39453
0.00596065
-0.0068882
-0.554546
0.555473
0.00845193
-0.0104546
-0.683055
0.685057
0.0131608
-0.0159361
-0.806625
0.809401
0.01918
-0.0222435
-0.952697
0.95576
0.0256573
-0.0287651
-1.12876
1.13187
0.0320838
-0.0349439
-1.33971
1.34257
0.037769
-0.0399368
-1.5925
1.59467
0.0414647
-0.0423763
-1.58236
1.58327
0.0427119
-0.0426725
-1.3165
1.31646
0.0423869
-0.0418946
-1.10065
1.10016
0.041311
-0.0406966
-0.925245
0.924631
0.0402493
-0.0392622
-0.781015
0.780028
0.0376203
-0.0342658
-0.641976
0.638622
0.0296568
-0.023352
-0.469097
0.462792
0.0172775
-0.0111164
-0.275379
0.269218
0.00651226
-0.0028212
-0.118033
0.114342
0.000790936
-0.0179642
0.0171733
-0.0306554
0.0313499
-0.000694474
0.00419246
-0.006149
-0.226847
0.228804
0.00811448
-0.00964336
-0.395558
0.397087
0.0111455
-0.01264
-0.557069
0.558563
0.0146192
-0.0169464
-0.687491
0.689818
0.0200244
-0.0231577
-0.81218
0.815313
0.0268026
-0.0302217
-0.958733
0.962152
0.0339957
-0.0373868
-1.1349
1.13829
0.0409445
-0.0439353
-1.34532
1.34832
0.0467826
-0.0488322
-1.59667
1.59872
0.0501128
-0.0506702
-1.58393
1.58449
0.0506157
-0.0501629
-1.31618
1.31572
0.0494868
-0.0485825
-1.09944
1.09854
0.0476341
-0.0466355
-0.923835
0.922837
0.0457514
-0.0442587
-0.778479
0.776987
0.0419532
-0.0377608
-0.635177
0.630984
0.0323764
-0.0253177
-0.456413
0.449355
0.0186864
-0.0120332
-0.262969
0.256316
0.0070647
-0.0030684
-0.110579
0.106583
0.00086219
-0.0163779
0.0155157
-0.0321124
0.0330932
-0.000980854
0.00607074
-0.00909839
-0.23119
0.234218
0.0123105
-0.0149006
-0.399148
0.401738
0.0173807
-0.0195874
-0.560924
0.563131
0.0221537
-0.0249479
-0.692681
0.695475
0.0285357
-0.0321275
-0.818459
0.82205
0.0362569
-0.0400906
-0.965482
0.969316
0.0442757
-0.0479834
-1.1416
1.1453
0.0517975
-0.0549116
-1.35118
1.3543
0.0577396
-0.0596057
-1.60055
1.60241
0.0605597
-0.0606694
-1.58475
1.58485
0.0601663
-0.0591999
-1.31494
1.31398
0.0580671
-0.0566787
-1.09732
1.09593
0.0553077
-0.0538696
-0.921566
0.920128
0.0524768
-0.0503879
-0.774892
0.772803
0.0473111
-0.042126
-0.626724
0.621539
0.0358069
-0.0278171
-0.442205
0.434215
0.0204736
-0.0131772
-0.249531
0.242235
0.00773787
-0.00336025
-0.102487
0.0981098
0.000943343
-0.0146474
0.013704
-0.0341312
0.0355002
-0.001369
0.0085241
-0.0128962
-0.23766
0.242033
0.0175922
-0.0214149
-0.405033
0.408855
0.0250279
-0.0280803
-0.566459
0.569512
0.0313944
-0.0348065
-0.698922
0.702334
0.0390586
-0.0432324
-0.825659
0.829833
0.0479666
-0.0523116
-0.973073
0.977418
0.0569896
-0.0610565
-1.14893
1.15299
0.0651301
-0.0683286
-1.35726
1.36046
0.0710512
-0.0726191
-1.604
1.60557
0.073117
-0.0726395
-1.58458
1.58411
0.071585
-0.0699942
-1.31257
1.31098
0.0683369
-0.0663966
-1.0941
1.09216
0.0645431
-0.0626143
-0.918331
0.916402
0.0606028
-0.0578218
-0.770056
0.767275
0.0538154
-0.0474338
-0.616296
0.609914
0.039989
-0.0308613
-0.426126
0.416998
0.0226275
-0.0145234
-0.234767
0.226663
0.0085071
-0.00368106
-0.0936133
0.0887873
0.00102852
-0.0127561
0.0117275
-0.0369054
0.038836
-0.00193053
0.0119294
-0.0180058
-0.246762
0.252838
0.024502
-0.0297725
-0.413689
0.41896
0.0347235
-0.0387975
-0.574024
0.578098
0.0430532
-0.0472664
-0.706513
0.710727
0.0523685
-0.0572681
-0.834028
0.838927
0.0627346
-0.0676679
-0.981706
0.986639
0.0728711
-0.0772735
-1.15695
1.16135
0.081529
-0.0847038
-1.36343
1.36661
0.0871752
-0.0882909
-1.60677
1.60789
0.0881707
-0.0869423
-1.58317
1.58194
0.0851849
-0.0828548
-1.30884
1.30651
0.0805718
-0.07802
-1.08963
1.08708
0.0756592
-0.0731204
-0.913967
0.911428
0.0704438
-0.0667478
-0.763716
0.76002
0.0616069
-0.0537867
-0.603473
0.595653
0.0449773
-0.0344518
-0.407769
0.397244
0.0251165
-0.0160257
-0.218358
0.209268
0.00933023
-0.0040053
-0.0838354
0.0785105
0.00110838
-0.0107007
0.00959234
-0.0407649
0.0435627
-0.00279779
0.0168554
-0.0251766
-0.259209
0.26753
0.0338992
-0.0409156
-0.425784
0.4328
0.0474978
-0.0528357
-0.584093
0.589431
0.0583224
-0.0636128
-0.715855
0.721145
0.0697952
-0.075548
-0.843841
0.849594
0.0817966
-0.0872898
-0.991491
0.996984
0.0929162
-0.09751
-1.16555
1.17015
0.101739
-0.104664
-1.36943
1.37236
0.106599
-0.106986
-1.60849
1.60887
0.105997
-0.103803
-1.58013
1.57794
0.101185
-0.0979671
-1.30354
1.30032
0.0949515
-0.0916956
-1.08377
1.08051
0.0887544
-0.0855014
-0.908167
0.904914
0.0821338
-0.0773115
-0.755408
0.750586
0.0707929
-0.0612313
-0.587734
0.578173
0.0507682
-0.0385421
-0.386631
0.374405
0.027867
-0.0176023
-0.199977
0.189712
0.0101393
-0.00429466
-0.0730763
0.0672316
0.0011696
-0.00849832
0.00732872
-0.0462778
0.0505362
-0.00425848
0.0244834
-0.0358512
-0.27615
0.287518
0.0474506
-0.0567708
-0.442331
0.451651
0.0653521
-0.0721438
-0.597292
0.604084
0.0791544
-0.0859169
-0.727393
0.734155
0.0932499
-0.0997766
-0.855305
0.861832
0.10664
-0.112476
-1.00229
1.00812
0.118219
-0.122679
-1.17437
1.17883
0.126487
-0.128781
-1.37472
1.37702
0.129753
-0.129031
-1.60852
1.6078
0.126843
-0.123398
-1.575
1.57155
0.119723
-0.115449
-1.29636
1.29208
0.111591
-0.107568
-1.07633
1.07231
0.104018
-0.0999664
-0.900717
0.896665
0.0957904
-0.0895805
-0.744653
0.738443
0.0813676
-0.0696994
-0.568405
0.556737
0.0572688
-0.0430239
-0.362126
0.347881
0.0307554
-0.0191344
-0.179316
0.167695
0.0108424
-0.0045011
-0.0613411
0.0549998
0.00119587
-0.00619398
0.00499811
-0.0545012
0.0618246
-0.00732342
0.0379076
-0.0537144
-0.299703
0.31551
0.0693207
-0.0817666
-0.464938
0.477384
0.0924429
-0.100572
-0.614053
0.622182
0.109081
-0.117068
-0.7415
0.749488
0.125279
-0.13219
-0.868135
0.875046
0.139131
-0.144758
-1.01352
1.01915
0.149993
-0.153718
-1.18263
1.18635
0.156461
-0.157523
-1.37845
1.37951
0.15695
-0.15464
-1.60607
1.60376
0.15087
-0.145881
-1.56721
1.56222
0.140936
-0.135448
-1.28699
1.2815
0.130631
-0.125748
-1.06714
1.06226
0.121534
-0.116698
-0.891384
0.886548
0.111395
-0.103429
-0.730862
0.722896
0.0931443
-0.0789157
-0.544645
0.530416
0.0641553
-0.0476308
-0.333607
0.317083
0.0335846
-0.0205138
-0.156166
0.143095
0.011383
-0.00460433
-0.0487844
0.0420057
0.00117567
-0.00386603
0.00269035
-0.0686743
0.0727809
-0.00410659
0.0290354
-0.0427102
-0.333835
0.34751
0.0565125
-0.0678383
-0.494982
0.506308
0.0779166
-0.0873185
-0.633923
0.643325
0.0977588
-0.10717
-0.757059
0.766471
0.117558
-0.126771
-0.881109
0.890321
0.136506
-0.145062
-1.02384
1.03239
0.153822
-0.16112
-1.18895
1.19625
0.168045
-0.173168
-1.37936
1.38448
0.177079
-0.178719
-1.60016
1.6018
0.178028
-0.175544
-1.55612
1.55364
0.172062
-0.167466
-1.2751
1.27051
0.163216
-0.158271
-1.05604
1.05109
0.154079
-0.148938
-0.87988
0.874739
0.14226
-0.130976
-0.71316
0.701877
0.116075
-0.0961495
-0.515427
0.495501
0.0762902
-0.0546517
-0.300346
0.278707
0.0371836
-0.0217849
-0.130579
0.115181
0.0116067
-0.00450529
-0.0358217
0.0287203
0.00110119
-0.00162496
0.00052377
-0.079903
0.0780804
0.00182255
0.00744115
-0.0164453
-0.364042
0.373046
0.0269126
-0.0349123
-0.522366
0.530366
0.042967
-0.0509699
-0.655086
0.663089
0.060603
-0.0694546
-0.775564
0.784416
0.0787932
-0.087282
-0.899008
0.907497
0.0962061
-0.1037
-1.04065
1.04814
0.111536
-0.117684
-1.20333
1.20947
0.123419
-0.127309
-1.38922
1.39311
0.129563
-0.129706
-1.60247
1.60261
0.127507
-0.123465
-1.55018
1.54613
0.118416
-0.112165
-1.26518
1.25893
0.106343
-0.0998894
-1.04466
1.03821
0.0939929
-0.0872378
-0.865232
0.858477
0.0801519
-0.0703762
-0.686712
0.676936
0.0593367
-0.0460221
-0.473983
0.460668
0.0340426
-0.0225616
-0.257148
0.245667
0.0143456
-0.00792072
-0.100582
0.0941569
0.00407494
-0.00156667
-0.022065
0.0195567
0.000376126
0.000566075
-0.000942201
-0.0813525
0.0784917
0.00286077
-0.00167451
-0.00356151
-0.384435
0.389671
0.0106859
-0.0165436
-0.542554
0.548411
0.0225992
-0.0295466
-0.673082
0.68003
0.0378897
-0.0455839
-0.792411
0.800105
0.0539263
-0.0613384
-0.91526
0.922672
0.0688747
-0.0755498
-1.05545
1.06212
0.0823126
-0.0876849
-1.21516
1.22054
0.0922154
-0.0949962
-1.39628
1.39906
0.0963601
-0.0954825
-1.60196
1.60109
0.092294
-0.0872822
-1.54137
1.53635
0.0814834
-0.0746283
-1.25237
1.24551
0.0678228
-0.0604327
-1.03057
1.02318
0.0535979
-0.0459633
-0.848929
0.841294
0.0390554
-0.0307748
-0.66355
0.655269
0.02267
-0.0142196
-0.445444
0.436994
0.00825787
-0.0039781
-0.233462
0.229182
0.00179218
-0.000683743
-0.0874162
0.0863078
0.00029181
-0.000135523
-0.0168113
0.016655
6.29038e-09
0.00144974
-0.00144975
-0.0801338
0.0774417
0.00269212
-0.00522519
0.00268908
-0.398054
0.40059
0.00190581
-0.00637213
-0.557564
0.562031
0.011515
-0.0173423
-0.687972
0.6938
0.0245025
-0.0311187
-0.80719
0.813806
0.0382663
-0.044635
-0.929571
0.93594
0.0514878
-0.0571572
-1.06837
1.07404
0.0630817
-0.0673219
-1.22549
1.22973
0.0711412
-0.0733183
-1.4016
1.40378
0.0738891
-0.0721138
-1.5997
1.59792
0.0684595
-0.0630234
-1.53067
1.52524
0.0568665
-0.0493161
-1.23827
1.23072
0.0422606
-0.0346111
-1.01501
1.00736
0.0274116
-0.0198837
-0.831683
0.824155
0.0130726
-0.0061843
-0.643781
0.636893
0.000361308
0.00413889
-0.427041
0.422541
-0.00599447
0.00608295
-0.222676
0.222587
-0.00518696
0.00357647
-0.0841014
0.0857119
-0.00217158
0.000916695
-0.0160689
0.0173238
-0.000287845
0.00168694
-0.00139909
-0.0786907
0.0763171
0.00237368
-0.00630119
0.00533969
-0.407171
0.408133
-0.00195528
-0.00132448
-0.569634
0.572913
0.0055263
-0.0108143
-0.700486
0.705774
0.0168516
-0.0226816
-0.819733
0.825562
0.0288966
-0.034453
-0.941879
0.947435
0.0403627
-0.0454464
-1.07959
1.08467
0.0504891
-0.0544097
-1.23385
1.23777
0.0576538
-0.0593732
-1.40559
1.40731
0.0595259
-0.0574595
-1.59594
1.59387
0.0536428
-0.0479679
-1.5191
1.51342
0.0418618
-0.0345582
-1.22313
1.21583
0.0275701
-0.0197279
-0.999144
0.991302
0.0125226
-0.00484015
-0.81483
0.807148
-0.00161268
0.00722799
-0.627197
0.621581
-0.0112035
0.0135376
-0.41551
0.413176
-0.0134786
0.0115861
-0.219623
0.221515
-0.00915628
0.00625772
-0.0862615
0.08916
-0.00378671
0.00161901
-0.0182098
0.0203775
-0.000452705
0.00127747
-0.000824765
-0.0773707
0.0753466
0.00202409
-0.00614039
0.00566005
-0.413472
0.413953
-0.00364396
0.00099926
-0.578983
0.581627
0.00313796
-0.00766628
-0.711119
0.715647
0.0128821
-0.0179689
-0.830607
0.835694
0.0235328
-0.0285416
-0.95267
0.957679
0.0340031
-0.0385032
-1.0895
1.094
0.0430874
-0.046647
-1.24142
1.24498
0.0495132
-0.0509716
-1.40878
1.41024
0.0509402
-0.0492295
-1.59176
1.59005
0.0455386
-0.0403055
-1.50745
1.50221
0.0345017
-0.0275146
-1.20846
1.20147
0.0209909
-0.0132259
-0.983207
0.975442
0.00613976
0.00113593
-0.798431
0.791155
-0.00702258
0.0119862
-0.612926
0.607963
-0.015171
0.0168983
-0.408056
0.406329
-0.0160617
0.0134654
-0.220468
0.223064
-0.0106542
0.00729743
-0.0910262
0.094383
-0.00443255
0.00193277
-0.0220454
0.0245452
-0.000516291
0.000438301
7.79899e-05
-0.076396
0.0748293
0.00156671
-0.00523393
0.00506543
-0.418211
0.418379
-0.00343007
0.00141564
-0.58716
0.589174
0.00247979
-0.00658394
-0.72035
0.724454
0.0115533
-0.0159635
-0.840384
0.844794
0.0208936
-0.0253802
-0.962683
0.967169
0.0306159
-0.0347532
-1.09855
1.10269
0.0388733
-0.0422881
-1.24837
1.25178
0.0453667
-0.0467535
-1.41174
1.41313
0.0469036
-0.0453012
-1.58802
1.58642
0.04218
-0.0370312
-1.49687
1.49172
0.0316961
-0.0252056
-1.1944
1.18791
0.0188942
-0.0117851
-0.967706
0.960596
0.00518003
0.00164584
-0.783073
0.776247
-0.00675494
0.0114369
-0.600178
0.595496
-0.0143039
0.0157656
-0.402118
0.400656
-0.0152777
0.0130849
-0.222654
0.224847
-0.0104183
0.00718693
-0.096567
0.0997984
-0.0044144
0.00198235
-0.026345
0.028777
-0.000565062
-0.000527733
0.0010928
-0.0759302
0.0747088
0.00122142
-0.00414876
0.00409287
-0.422029
0.422084
-0.0026336
0.000714161
-0.594311
0.59623
0.0030582
-0.00675014
-0.728672
0.732364
0.0110354
-0.0153142
-0.849143
0.853421
0.0199048
-0.0245585
-0.971486
0.97614
0.0291073
-0.0330946
-1.10693
1.11092
0.0373797
-0.040598
-1.2551
1.25832
0.043273
-0.045151
-1.41446
1.41634
0.0455849
-0.0443502
-1.58492
1.58368
0.0414373
-0.0368623
-1.48678
1.48221
0.0318506
-0.025757
-1.18115
1.17505
0.020014
-0.0135913
-0.953482
0.94706
0.0077374
-0.00177521
-0.769186
0.763224
-0.00332654
0.00784303
-0.588605
0.584089
-0.0105581
0.0121915
-0.396716
0.395083
-0.0121987
0.0105349
-0.224406
0.22607
-0.00847655
0.00591286
-0.101504
0.104068
-0.00368571
0.00169329
-0.0303208
0.0323133
-0.000508455
-0.00147264
0.0019811
-0.0759925
0.0749782
0.00101436
-0.00288083
0.00257892
-0.425484
0.425786
-0.00130202
-0.000685978
-0.600874
0.602862
0.00416494
-0.00774468
-0.736449
0.740029
0.0118742
-0.0157707
-0.857479
0.861375
0.0204983
-0.0243897
-0.980236
0.984127
0.0289266
-0.0327544
-1.11507
1.1189
0.0369562
-0.0404093
-1.26153
1.26499
0.0434294
-0.0451625
-1.41801
1.41974
0.0460081
-0.0452139
-1.5824
1.5816
0.042949
-0.0387208
-1.47753
1.4733
0.0342513
-0.028802
-1.16918
1.16373
0.023788
-0.0181332
-0.940655
0.935
0.0130744
-0.00749377
-0.756808
0.751227
0.00250115
0.002292
-0.57768
0.572887
-0.00542395
0.00707468
-0.39102
0.389369
-0.0075743
0.00678984
-0.225198
0.225983
-0.00558205
0.00395033
-0.10505
0.106681
-0.00250817
0.00120232
-0.033312
0.0346178
-0.000379272
-0.00224818
0.00262745
-0.0763356
0.0756345
0.000701045
-0.00174994
0.00104328
-0.42906
0.429767
1.09855e-05
-0.00229893
-0.606678
0.608966
0.00544045
-0.00890434
-0.743722
0.747186
0.0128745
-0.01691
-0.865123
0.869159
0.0210386
-0.0250987
-0.988231
0.992291
0.0296103
-0.033249
-1.12315
1.12679
0.0375695
-0.0410188
-1.26826
1.27171
0.0441582
-0.0464777
-1.42191
1.42423
0.0478723
-0.0474208
-1.58087
1.58042
0.0454991
-0.0421734
-1.46933
1.466
0.0385198
-0.0338279
-1.15838
1.15369
0.0294411
-0.024652
-0.929483
0.924694
0.0196434
-0.0143776
-0.745119
0.739853
0.0093574
-0.00425746
-0.56683
0.56173
0.000795917
0.00147855
-0.384832
0.382557
-0.00241288
0.0026354
-0.22464
0.224418
-0.00230641
0.00169779
-0.106731
0.10734
-0.00114335
0.000588801
-0.0349447
0.0354993
-0.000204438
-0.00274284
0.00294728
-0.0770895
0.0765438
0.000545705
-0.000799669
0.000215142
-0.432866
0.433451
0.00160978
-0.00366423
-0.612751
0.614805
0.00696137
-0.0103139
-0.750518
0.75387
0.0141387
-0.0177845
-0.872855
0.876501
0.0220443
-0.025799
-0.996358
1.00011
0.0302711
-0.0343578
-1.13088
1.13497
0.0383541
-0.0421718
-1.27522
1.27903
0.0457846
-0.0482549
-1.42648
1.42895
0.0500936
-0.0505255
-1.58023
1.58066
0.0492336
-0.0468365
-1.46271
1.46031
0.0437345
-0.0398579
-1.14928
1.1454
0.0360982
-0.0315103
-0.919571
0.914983
0.0267141
-0.0212443
-0.733703
0.728233
0.0160546
-0.0106648
-0.555467
0.550077
0.00678318
-0.00396821
-0.377961
0.375146
0.00224021
-0.00119124
-0.222246
0.221197
0.000598108
-0.000199156
-0.106425
0.106026
-2.45561e-05
0.000124065
-0.0352001
0.0351006
-8.23223e-05
-0.00291258
0.0029949
-0.0781091
0.0777488
0.000360314
0.000243368
-0.00109557
-0.436759
0.437611
0.00272783
-0.00509716
-0.618369
0.620738
0.00833472
-0.0115417
-0.757098
0.760305
0.0154496
-0.018949
-0.880114
0.883613
0.0230591
-0.0269419
-1.00434
1.00823
0.0313291
-0.0354006
-1.13891
1.14299
0.0396495
-0.0435321
-1.28279
1.28667
0.0473807
-0.0506458
-1.43173
1.43499
0.0530083
-0.0538713
-1.5811
1.58196
0.053488
-0.0517127
-1.45799
1.45621
0.0494217
-0.0462515
-1.14163
1.13846
0.0425587
-0.0380089
-0.91005
0.9055
0.0331206
-0.0273294
-0.722001
0.71621
0.0221078
-0.0165647
-0.543996
0.538453
0.0124941
-0.00901731
-0.37033
0.366853
0.00665957
-0.00470042
-0.218194
0.216235
0.00311843
-0.00176526
-0.104255
0.102902
0.000849071
-0.000231221
-0.0341813
0.0335634
4.12353e-06
-0.00279787
0.00279374
-0.0793551
0.0791233
0.000231727