/*--------------------------------*- C++ -*----------------------------------*\
  =========                 |
  \\      /  F ield         | OpenFOAM: The Open Source CFD Toolbox
   \\    /   O peration     | Website:  https://openfoam.org
    \\  /    A nd           | Version:  9
     \\/     M anipulation  |
\*---------------------------------------------------------------------------*/
FoamFile
{
    format      ascii;
    class       volScalarField;
    location    "38";
    object      p;
}
// * * * * * * * * * * * * * * * * * * * * * * * * * * * * * * * * * * * * * //

dimensions      [0 2 -2 0 0 0 0];

internalField   nonuniform List<scalar> 
8800
(
0.99092
0.943131
0.904437
0.875435
0.854562
0.839716
0.829099
0.821592
0.816735
0.814627
0.815832
0.819972
0.826575
0.835859
0.848616
0.866334
0.8911
0.925034
0.967577
1.02628
0.822181
0.829859
0.837323
0.840627
0.839116
0.834027
0.827524
0.821424
0.816666
0.813776
0.813439
0.815882
0.82032
0.826227
0.832969
0.839228
0.842854
0.84211
0.836679
0.827982
0.800602
0.80676
0.810883
0.813818
0.815855
0.816443
0.815314
0.81318
0.811121
0.810153
0.811048
0.813369
0.81612
0.818263
0.818842
0.817621
0.815262
0.811856
0.807293
0.80353
0.794827
0.797475
0.800221
0.802614
0.804236
0.805379
0.806094
0.806176
0.805832
0.805716
0.806393
0.807495
0.808278
0.808297
0.807652
0.806534
0.804696
0.802109
0.799697
0.798192
0.789494
0.790917
0.79269
0.794711
0.79648
0.7978
0.79876
0.799516
0.800074
0.800562
0.801125
0.801539
0.801569
0.801226
0.800485
0.7992
0.797475
0.795605
0.794287
0.793455
0.78448
0.785399
0.786634
0.788189
0.789806
0.791308
0.792561
0.79358
0.794478
0.795281
0.795864
0.796092
0.795965
0.795455
0.794516
0.793268
0.791901
0.790612
0.789776
0.789226
0.779654
0.780322
0.781278
0.782569
0.783961
0.785395
0.786799
0.788068
0.789191
0.79019
0.790882
0.791125
0.790932
0.790331
0.789447
0.788436
0.787371
0.78641
0.78581
0.785406
0.774972
0.775487
0.776265
0.777384
0.778644
0.779991
0.781398
0.782813
0.784154
0.785362
0.78621
0.786523
0.786355
0.785848
0.785144
0.784335
0.783491
0.78276
0.782309
0.781996
0.770367
0.770776
0.771427
0.772425
0.773614
0.774913
0.776313
0.777801
0.779319
0.780763
0.781814
0.782273
0.782258
0.781933
0.781419
0.780793
0.780131
0.779577
0.779234
0.778981
0.765764
0.766096
0.766659
0.767578
0.768719
0.769999
0.771424
0.772992
0.77467
0.776366
0.777683
0.778385
0.778602
0.778488
0.778167
0.77773
0.777232
0.776822
0.776562
0.776353
0.76108
0.761353
0.761856
0.762732
0.763855
0.765158
0.766647
0.768333
0.770206
0.772187
0.773847
0.77487
0.775364
0.775486
0.775367
0.77511
0.77477
0.774482
0.774287
0.774111
0.756245
0.756471
0.756935
0.757798
0.758945
0.760312
0.761909
0.76377
0.765901
0.768238
0.770321
0.771732
0.772542
0.772928
0.773028
0.772947
0.772759
0.772577
0.772436
0.772284
0.751182
0.751372
0.751815
0.752695
0.753906
0.755381
0.757138
0.759244
0.761726
0.764534
0.767128
0.76898
0.770152
0.770832
0.77117
0.771275
0.771235
0.77115
0.771054
0.770921
0.74581
0.745968
0.746406
0.747328
0.748642
0.75027
0.752243
0.754654
0.757555
0.760936
0.764161
0.766568
0.768187
0.769215
0.769828
0.770146
0.770258
0.770267
0.770211
0.770092
0.740034
0.740162
0.740608
0.7416
0.743062
0.744899
0.747162
0.749969
0.753411
0.757505
0.761503
0.764574
0.766722
0.768156
0.769085
0.769639
0.769916
0.77002
0.770004
0.769897
0.733752
0.733851
0.73432
0.735406
0.737054
0.73916
0.741796
0.745114
0.749234
0.754202
0.759152
0.763046
0.765824
0.767745
0.769029
0.769854
0.770331
0.770539
0.770562
0.770461
0.726814
0.726894
0.72738
0.728584
0.730476
0.732918
0.73603
0.739995
0.744987
0.751072
0.757167
0.762008
0.765541
0.768049
0.769791
0.770933
0.771626
0.771945
0.772007
0.771911
0.718967
0.719038
0.719586
0.720923
0.7231
0.725973
0.729674
0.734427
0.740454
0.747863
0.755391
0.761453
0.765918
0.769139
0.771442
0.773001
0.773962
0.774415
0.774518
0.774424
0.709984
0.710025
0.710644
0.712183
0.714741
0.718175
0.722643
0.728443
0.735843
0.744949
0.754174
0.76162
0.767161
0.771219
0.77419
0.776237
0.777529
0.778137
0.778281
0.778184
0.69947
0.699498
0.700205
0.702002
0.705023
0.709155
0.714587
0.72168
0.730742
0.741898
0.75322
0.762389
0.769257
0.774349
0.778127
0.780776
0.782473
0.783261
0.783445
0.783337
0.686803
0.686822
0.687658
0.689809
0.693479
0.698565
0.705297
0.714108
0.725327
0.739034
0.752842
0.763988
0.772372
0.778649
0.783378
0.786747
0.788905
0.789888
0.790103
0.789976
0.671147
0.671167
0.672214
0.674905
0.679505
0.685924
0.694422
0.705486
0.719432
0.73626
0.753017
0.766475
0.776616
0.784257
0.790041
0.794222
0.796881
0.798061
0.798302
0.798148
0.651306
0.651337
0.652731
0.656278
0.662264
0.670597
0.68155
0.695626
0.713046
0.733656
0.75386
0.769948
0.78205
0.791214
0.798201
0.803267
0.806445
0.807809
0.808065
0.807881
0.625481
0.625549
0.627559
0.632535
0.640751
0.651945
0.666414
0.684539
0.706347
0.731472
0.755598
0.774586
0.788844
0.799667
0.807921
0.813949
0.817633
0.819155
0.819412
0.819195
0.590685
0.590882
0.594142
0.601758
0.613751
0.629389
0.648886
0.672335
0.699527
0.729887
0.758365
0.780496
0.797046
0.809648
0.819309
0.826321
0.830472
0.8321
0.832329
0.832077
0.541225
0.542276
0.548833
0.561842
0.580395
0.602898
0.629329
0.659522
0.693076
0.729284
0.762415
0.787808
0.806736
0.821184
0.832293
0.840294
0.844856
0.846505
0.846672
0.84638
0.468194
0.475611
0.490831
0.513909
0.542165
0.573787
0.608701
0.64669
0.687353
0.729994
0.768232
0.797259
0.818894
0.835507
0.848392
0.857526
0.862594
0.864367
0.864543
0.864298
0.389525
0.40687
0.431501
0.465222
0.503568
0.5445
0.588001
0.634036
0.68231
0.732238
0.776729
0.810513
0.835779
0.855319
0.870623
0.881369
0.887047
0.888899
0.889126
0.889046
0.324239
0.344576
0.377036
0.419614
0.466816
0.516502
0.568309
0.622214
0.677936
0.734926
0.785367
0.823604
0.852271
0.874483
0.891684
0.903355
0.909417
0.911758
0.912025
0.912022
0.27074
0.292782
0.330638
0.37955
0.433772
0.490763
0.54989
0.610992
0.673676
0.737322
0.793344
0.835668
0.867323
0.891682
0.910222
0.923076
0.930199
0.932376
0.932709
0.932756
0.226114
0.249227
0.290693
0.344714
0.404606
0.467633
0.53302
0.600489
0.669498
0.739296
0.800456
0.846469
0.880681
0.906793
0.926588
0.940213
0.947912
0.950402
0.950902
0.950982
0.18802
0.211723
0.256043
0.313935
0.378578
0.446753
0.517579
0.590689
0.665418
0.740852
0.806733
0.856033
0.892446
0.919947
0.940582
0.954842
0.962979
0.965945
0.966593
0.966696
0.154537
0.17862
0.225095
0.286266
0.354883
0.427526
0.503169
0.581355
0.661314
0.741968
0.812205
0.864466
0.902732
0.931342
0.952671
0.967427
0.975924
0.979238
0.979992
0.98009
0.124262
0.148681
0.196888
0.260813
0.332865
0.409413
0.48936
0.572176
0.656981
0.742532
0.816858
0.871837
0.91173
0.941268
0.963091
0.978201
0.986922
0.990457
0.991273
0.99136
0.0963085
0.121047
0.1707
0.236946
0.312006
0.392
0.475824
0.562882
0.652215
0.742421
0.820675
0.87825
0.919674
0.950063
0.972316
0.987691
0.996528
1.00019
1.00103
1.00107
0.0699146
0.0950178
0.14602
0.214256
0.291918
0.374973
0.462304
0.553267
0.646852
0.741523
0.823633
0.883796
0.92676
0.958009
0.980725
0.996268
1.00522
1.00891
1.00979
1.00979
0.0447231
0.070239
0.122348
0.192378
0.272343
0.358124
0.448628
0.54319
0.640768
0.739757
0.825715
0.888544
0.93315
0.965328
0.988525
1.00427
1.01323
1.01686
1.01774
1.01774
0.0203318
0.0463791
0.0994041
0.17111
0.253082
0.341305
0.434687
0.532556
0.633879
0.737043
0.826895
0.892553
0.93896
0.972199
0.995948
1.01191
1.02088
1.02447
1.02522
1.02517
-0.00339575
0.0230998
0.0771666
0.150298
0.234039
0.324442
0.42042
0.521318
0.626135
0.733333
0.827145
0.895841
0.944279
0.978737
1.00313
1.01932
1.02826
1.03171
1.03236
1.03224
-0.0265887
0.0004525
0.0554594
0.129862
0.215182
0.307514
0.405815
0.509459
0.617516
0.728582
0.826401
0.898386
0.949137
0.985027
1.01015
1.02655
1.03536
1.03861
1.03911
1.03893
-0.0493656
-0.0217161
0.0341865
0.109771
0.196489
0.290531
0.390901
0.497011
0.60803
0.722756
0.82459
0.900115
0.953536
0.991133
1.01708
1.03364
1.04221
1.04514
1.0455
1.04528
-0.0717332
-0.0434029
0.0133781
0.0900342
0.177996
0.273534
0.37573
0.484025
0.59771
0.715835
0.821635
0.900927
0.957425
0.997117
1.02406
1.04065
1.04876
1.05127
1.05147
1.05121
-0.0935319
-0.0645583
-0.00692959
0.0706852
0.159743
0.256592
0.36037
0.470578
0.586621
0.707848
0.817469
0.900702
0.960685
1.003
1.03128
1.04778
1.05508
1.05694
1.05694
1.05668
-0.114733
-0.0851483
-0.0267211
0.0517736
0.14179
0.239769
0.344913
0.456757
0.57485
0.698832
0.812049
0.899285
0.963136
1.00872
1.03898
1.0555
1.06145
1.06216
1.06187
1.06165
-0.135401
-0.105133
-0.0459602
0.0333351
0.124202
0.22315
0.329452
0.442669
0.562496
0.688864
0.80534
0.89653
0.964522
1.01404
1.04729
1.0646
1.06885
1.06741
1.06629
1.06633
-0.155357
-0.124485
-0.0645869
0.015435
0.107039
0.206817
0.314082
0.428429
0.549682
0.678048
0.797349
0.892293
0.964537
1.01844
1.0559
1.0758
1.07947
1.07512
1.07151
1.07074
-0.174691
-0.143191
-0.0826154
-0.00195312
0.0902664
0.190725
0.298747
0.413977
0.53634
0.666313
0.787945
0.886306
0.962841
1.02124
1.0638
1.08883
1.09533
1.09068
1.08082
1.06487
-0.193326
-0.161238
-0.100164
-0.0190221
0.0735939
0.174535
0.283027
0.398824
0.521922
0.653004
0.776453
0.877728
0.958764
1.02139
1.06858
1.10021
1.1106
1.09998
1.08137
1.06621
-0.211081
-0.178749
-0.117042
-0.0355419
0.0573313
0.158599
0.267149
0.383302
0.506747
0.638405
0.763006
0.866182
0.951704
1.01779
1.06531
1.09669
1.11073
1.09041
1.02094
0.988817
-0.227291
-0.196912
-0.132927
-0.0509287
0.0422053
0.143414
0.251415
0.367639
0.491036
0.622652
0.747579
0.851452
0.940501
1.01012
1.04975
1.07351
1.07156
1.02047
0.950205
0.906601
-0.283292
-0.212905
-0.147519
-0.0662168
0.0267141
0.127552
0.235762
0.351561
0.474435
0.60532
0.729624
0.833097
0.92164
0.998387
1.00419
1.01521
0.975589
0.909485
0.833201
0.790434
-0.244573
-0.228601
-0.169005
-0.0877586
0.00417541
0.104744
0.21192
0.326907
0.448546
0.577594
0.699273
0.800314
0.880276
0.958484
0.952534
0.846451
0.744227
0.673001
0.600205
0.633693
-0.275803
-0.24646
-0.185891
-0.105374
-0.0133887
0.0868416
0.194199
0.308471
0.428925
0.55597
0.674519
0.771331
0.843362
0.884189
0.839215
0.6958
0.569836
0.479879
0.381117
0.434049
-0.299863
-0.267565
-0.205709
-0.124938
-0.0328993
0.0671686
0.174375
0.287735
0.406683
0.531179
0.64581
0.736816
0.799228
0.807957
0.705124
0.533577
0.380837
0.261877
0.131341
0.165666
-0.323416
-0.289537
-0.22647
-0.144848
-0.0526542
0.0472568
0.153909
0.266231
0.383485
0.505092
0.614995
0.699465
0.746541
0.723866
0.56847
0.372087
0.180338
0.00832029
-0.183746
-0.197672
-0.346323
-0.311997
-0.248024
-0.165662
-0.0732692
0.026434
0.132417
0.243592
0.358914
0.477287
0.581902
0.659014
0.68825
0.630658
0.438651
0.22695
0.00682499
-0.187812
-0.436016
-0.745005
-0.369504
-0.335169
-0.270645
-0.187783
-0.0951758
0.00437523
0.109765
0.219772
0.333076
0.448007
0.547167
0.615812
0.626718
0.518536
0.326133
0.114577
-0.0927688
-0.268824
-0.337195
-0.424194
-0.393881
-0.359493
-0.294668
-0.211549
-0.11886
-0.019546
0.0851602
0.193835
0.304817
0.415813
0.509105
0.567415
0.553753
0.411693
0.226818
0.0344537
-0.130104
-0.224052
-0.248282
-0.264853
-0.419767
-0.385282
-0.320255
-0.237038
-0.144443
-0.0455243
0.0582657
0.165312
0.273562
0.379991
0.466928
0.512311
0.480343
0.312565
0.13721
-0.0296202
-0.157885
-0.19664
-0.210771
-0.212114
-0.447359
-0.412695
-0.347459
-0.26423
-0.171857
-0.073546
0.0290853
0.134174
0.239259
0.340548
0.420343
0.452155
0.403143
0.220452
0.0544633
-0.0949234
-0.174666
-0.190917
-0.192206
-0.192054
-0.476699
-0.441741
-0.376287
-0.293101
-0.201094
-0.103574
-0.0023558
0.100436
0.201932
0.297573
0.369222
0.389684
0.306384
0.136155
-0.0219455
-0.145071
-0.181197
-0.182005
-0.18193
-0.18128
-0.507489
-0.472329
-0.406614
-0.323542
-0.232038
-0.135519
-0.0359889
0.0641619
0.161636
0.251167
0.314323
0.318798
0.214772
0.0578065
-0.0827019
-0.161798
-0.17209
-0.174567
-0.17513
-0.174917
-0.539144
-0.503865
-0.438176
-0.355305
-0.264468
-0.169183
-0.0716146
0.0255336
0.118589
0.201583
0.256199
0.243795
0.131838
-0.00941275
-0.129008
-0.156912
-0.169616
-0.171172
-0.170555
-0.170183
-0.571213
-0.53582
-0.470479
-0.387969
-0.297998
-0.204195
-0.108892
-0.0150962
0.0731436
0.149426
0.194355
0.170077
0.0515988
-0.0660587
-0.16138
-0.190049
-0.175372
-0.170755
-0.169607
-0.168821
-0.602829
-0.567602
-0.502649
-0.420877
-0.332043
-0.240018
-0.147288
-0.057158
0.0258663
0.0953367
0.130516
0.0976527
-0.0275599
-0.110462
-0.165376
-0.171949
-0.175897
-0.177192
-0.176495
-0.175748
-0.63238
-0.597972
-0.53376
-0.453089
-0.365786
-0.27587
-0.18604
-0.0998245
-0.0223379
0.0400387
0.0696466
0.0138088
-0.109018
-0.158614
-0.147632
-0.184261
-0.191683
-0.1884
-0.188634
-0.1888
-0.658415
-0.624948
-0.562709
-0.483456
-0.39814
-0.310715
-0.224136
-0.142025
-0.0701157
-0.0152923
0.0115525
-0.0786468
-0.217215
-0.237261
-0.204206
-0.231123
-0.241008
-0.242805
-0.242652
-0.241522
-0.678871
-0.647163
-0.587342
-0.510567
-0.427766
-0.343305
-0.26028
-0.182447
-0.115789
-0.0689039
-0.0467762
-0.165671
-0.370199
-0.50782
-0.437874
-0.411719
-0.401721
-0.394964
-0.379256
-0.369141
-0.69168
-0.662581
-0.606056
-0.532559
-0.453102
-0.372172
-0.292988
-0.219466
-0.157531
-0.117895
-0.102658
-0.231064
-0.490306
-0.959206
-0.993027
-0.682607
-0.542145
-0.497797
-0.473001
-0.464431
-0.694343
-0.669148
-0.616984
-0.547704
-0.472435
-0.395726
-0.320619
-0.251217
-0.193304
-0.157689
-0.146294
-0.22813
-0.362022
-0.643564
-0.806758
-0.495181
-0.351758
-0.333461
-0.344105
-0.347696
-0.685221
-0.664651
-0.618152
-0.554488
-0.484298
-0.412382
-0.34155
-0.275758
-0.220794
-0.185685
-0.160957
-0.119727
0.105964
0.401802
0.29617
-0.0719537
-0.280055
-0.290774
-0.291936
-0.291072
-0.662205
-0.64619
-0.607976
-0.551807
-0.487764
-0.421052
-0.354412
-0.291385
-0.238204
-0.202633
-0.175692
-0.0922998
0.181012
0.721416
0.591708
0.094266
-0.222835
-0.239858
-0.26626
-0.283138
-0.627147
-0.616409
-0.586954
-0.539934
-0.482822
-0.421457
-0.358518
-0.297236
-0.243432
-0.206998
-0.197611
-0.286843
-0.6458
-1.26736
-1.83833
-2.16139
-1.95297
-1.51873
-1.12629
-1.04226
-0.585514
-0.579286
-0.559264
-0.521212
-0.471205
-0.414415
-0.354003
-0.292682
-0.234759
-0.191135
-0.184718
-0.469286
-1.27946
-2.38017
-3.06614
-3.26216
-3.01699
-2.61917
-2.24933
-2.01617
-0.545246
-0.541682
-0.53042
-0.500754
-0.456062
-0.402198
-0.342248
-0.277956
-0.212181
-0.1477
-0.114218
-0.216705
-0.551692
-0.810115
-0.862794
-0.655629
-0.332183
-0.0310491
0.185356
0.288889
-0.513306
-0.511123
-0.505415
-0.483388
-0.442421
-0.388598
-0.326469
-0.25535
-0.17692
-0.0855011
0.0219412
0.167185
0.407969
0.858641
1.45263
2.01054
2.43416
2.68207
2.7867
2.81559
-0.48688
-0.486033
-0.48458
-0.470924
-0.433473
-0.377796
-0.310814
-0.233171
-0.142455
-0.0353479
0.0962219
0.237088
0.523913
1.06166
1.68729
2.24405
2.64
2.86878
2.97379
3.00227
-0.469146
-0.468799
-0.468766
-0.46121
-0.427996
-0.370138
-0.297834
-0.214709
-0.118514
-0.00731528
0.111438
0.236842
0.425037
0.904185
1.43782
1.90739
2.24812
2.43836
2.52066
2.54218
-0.454319
-0.45372
-0.453669
-0.451285
-0.423529
-0.364265
-0.287427
-0.20066
-0.105331
0.00152987
0.106674
0.216933
0.341535
0.691033
1.10811
1.45104
1.702
1.84149
1.90214
1.91845
-0.445926
-0.444329
-0.444011
-0.444049
-0.419648
-0.357481
-0.276213
-0.187689
-0.0948172
0.00551499
0.099571
0.187362
0.276382
0.503962
0.798415
1.03856
1.20964
1.30548
1.34778
1.35779
-0.446779
-0.447137
-0.45051
-0.450148
-0.418734
-0.34582
-0.25889
-0.17042
-0.082022
0.00897523
0.0871996
0.152061
0.207146
0.366667
0.56364
0.723092
0.838736
0.902264
0.929793
0.935828
-0.429627
-0.435524
-0.442868
-0.437516
-0.395667
-0.31568
-0.228652
-0.145708
-0.066905
0.0103963
0.0752447
0.123268
0.165736
0.27138
0.404243
0.50822
0.580628
0.620781
0.637212
0.639915
-0.338976
-0.346175
-0.353593
-0.347127
-0.309847
-0.245704
-0.176718
-0.109558
-0.0456244
0.0175903
0.0701893
0.106286
0.138653
0.20935
0.297764
0.366788
0.41265
0.436867
0.446965
0.447981
-0.180653
-0.185216
-0.190763
-0.189549
-0.172273
-0.140916
-0.103058
-0.0616332
-0.0176097
0.0293438
0.068802
0.0966012
0.122412
0.169366
0.226363
0.271548
0.30178
0.318314
0.324783
0.324749
-0.0231047
-0.0252848
-0.0298635
-0.0360806
-0.0394039
-0.0379498
-0.0284717
-0.0116668
0.0126701
0.043524
0.0734738
0.0986106
0.120048
0.150989
0.186298
0.215106
0.234321
0.244945
0.248737
0.24804
0.0822129
0.0810798
0.0765265
0.0658125
0.0501744
0.0368455
0.0297421
0.0306753
0.0404152
0.0585188
0.0804913
0.10224
0.122814
0.142829
0.163669
0.180497
0.192628
0.199676
0.202162
0.201071
0.132368
0.131633
0.127622
0.116964
0.100065
0.082546
0.0688025
0.0614505
0.0619526
0.0707745
0.0854454
0.103444
0.120205
0.132406
0.143666
0.155149
0.164021
0.169116
0.170437
0.169079
0.147224
0.146645
0.143547
0.135138
0.121214
0.105506
0.0914588
0.0813862
0.0770347
0.0794341
0.0878222
0.0997052
0.112032
0.117206
0.123642
0.132198
0.139705
0.144197
0.145404
0.144017
0.144828
0.144377
0.142211
0.136396
0.126444
0.11439
0.102484
0.0926425
0.0861702
0.0840741
0.0860647
0.0906271
0.0954507
0.0966212
0.100917
0.10936
0.116935
0.121335
0.122527
0.121234
0.135911
0.135569
0.134153
0.13046
0.123907
0.115441
0.106363
0.0979805
0.0910846
0.0859233
0.0815573
0.0770933
0.0710678
0.0687949
0.0772998
0.0877993
0.0956033
0.0996115
0.100583
0.0994811
0.125706
0.125439
0.124537
0.122335
0.118325
0.112823
0.106446
0.0999498
0.0935833
0.0868309
0.0775784
0.0641344
0.0501979
0.0489021
0.060002
0.0714663
0.0787373
0.0818986
0.0825132
0.0817113
0.116436
0.116224
0.115652
0.114407
0.112144
0.108854
0.104794
0.100311
0.0956042
0.0888943
0.0773773
0.0582114
0.0385591
0.0405386
0.0550655
0.0663363
0.0718976
0.0733776
0.0736462
0.0732763
0.108656
0.108511
0.108175
0.107522
0.10638
0.104646
0.102494
0.100158
0.097693
0.0940595
0.085218
0.0675668
0.0510039
0.0571981
0.0709147
0.078894
0.0814034
0.0814095
0.081307
0.0810563
0.101829
0.101747
0.101584
0.101275
0.100944
0.100373
0.0998402
0.0997442
0.100214
0.101327
0.10053
0.0937768
0.0881172
0.0963969
0.104776
0.107954
0.107918
0.107155
0.106897
0.106581
0.0951257
0.095111
0.095101
0.0950417
0.0950022
0.0954383
0.096302
0.0982365
0.102171
0.109561
0.120056
0.129665
0.136501
0.145659
0.147755
0.145773
0.144242
0.143928
0.143704
0.143195
0.087635
0.0876745
0.0878145
0.087976
0.0884112
0.0892279
0.091216
0.0949628
0.102042
0.115467
0.137658
0.164916
0.188923
0.195116
0.189306
0.183533
0.181504
0.181383
0.18065
0.179873
0.0787429
0.078831
0.0791086
0.0794791
0.0802407
0.0813483
0.084089
0.0889061
0.0979356
0.11567
0.146983
0.190304
0.228145
0.231979
0.218712
0.210103
0.208971
0.209578
0.208432
0.207431
0.0677234
0.0678303
0.0681722
0.0687268
0.0694912
0.0712544
0.0736573
0.0794519
0.0893753
0.108124
0.141767
0.187804
0.236232
0.238719
0.224333
0.219091
0.218796
0.219204
0.217523
0.216264
0.0541387
0.054221
0.0546128
0.0554678
0.0566917
0.0581764
0.0607581
0.0654749
0.074517
0.0914898
0.120533
0.162587
0.200436
0.203043
0.193781
0.19408
0.200138
0.20317
0.201142
0.199496
0.0386023
0.0386392
0.0389656
0.039863
0.0410811
0.0429205
0.0454645
0.0489211
0.0551295
0.0664229
0.0847664
0.106864
0.122913
0.127566
0.132799
0.14338
0.151576
0.154082
0.152442
0.150542
0.0218215
0.0217965
0.0219837
0.0226952
0.0236863
0.0246988
0.0261505
0.0287381
0.0325275
0.0374759
0.0434551
0.0417657
0.0256064
0.0367756
0.0548064
0.0702557
0.0735632
0.0741672
0.0747815
0.073667
0.00475471
0.00459512
0.00436532
0.00409328
0.00380429
0.00386712
0.00433027
0.00490409
0.00557
0.00688215
0.0101232
0.00980709
-0.00424233
-0.000347296
0.00585199
0.00748789
-0.00140375
-0.00401202
0.00034651
0.00365915
0.0524765
0.225844
0.428417
0.603804
0.74474
0.856725
0.949847
1.02865
1.06401
1.0408
0.368311
0.493171
0.62717
0.74326
0.841458
0.923024
0.989039
1.03579
1.05928
1.07121
0.594887
0.680344
0.771758
0.852839
0.922642
0.981049
1.02744
1.06129
1.08565
1.10349
0.760264
0.820952
0.885072
0.943715
0.99486
1.03825
1.07383
1.10216
1.12533
1.14355
0.888908
0.933284
0.980333
1.02518
1.06482
1.09938
1.12891
1.15344
1.17407
1.19186
0.995088
1.02872
1.06756
1.1038
1.13702
1.16675
1.19269
1.21446
1.23248
1.2498
1.08884
1.11796
1.15243
1.18498
1.2153
1.24279
1.26678
1.28668
1.3023
1.31937
1.17816
1.20762
1.24193
1.27424
1.30408
1.33087
1.35389
1.3725
1.38595
1.40299
1.27391
1.30728
1.34411
1.37786
1.40806
1.43437
1.45642
1.47378
1.4857
1.50311
1.38919
1.42712
1.46587
1.50022
1.52966
1.55449
1.57492
1.59087
1.60237
1.62045
1.5343
1.57292
1.60912
1.63987
1.6656
1.68775
1.70684
1.72241
1.73486
1.75286
1.70949
1.74115
1.76738
1.78986
1.80987
1.82862
1.84636
1.86286
1.87822
1.89629
1.89817
1.91539
1.93046
1.94671
1.96263
1.97718
1.9904
2.00434
2.02189
2.04205
2.07994
2.08947
2.10103
2.11184
2.12114
2.13073
2.14153
2.15291
2.16427
2.17963
2.28718
2.29085
2.27591
2.2611
2.25484
2.26052
2.27901
2.30932
2.3415
2.36816
2.5935
2.45863
2.38201
2.33965
2.32224
2.3262
2.3536
2.41002
2.51264
2.73701
0.881518
0.879387
0.874901
0.866271
0.854039
0.841898
0.831653
0.823731
0.818075
0.81477
0.814349
0.81702
0.822069
0.829249
0.838606
0.850124
0.862759
0.873783
0.879889
0.882938
0.805984
0.811829
0.818163
0.822648
0.825108
0.824771
0.822016
0.81818
0.814631
0.812315
0.812098
0.814222
0.817825
0.822068
0.825841
0.8277
0.826745
0.823249
0.818077
0.811453
0.797588
0.799883
0.803282
0.806271
0.808335
0.809817
0.810551
0.810203
0.809135
0.808192
0.808287
0.809636
0.811385
0.812638
0.812777
0.811856
0.810283
0.807929
0.804654
0.801728
0.792114
0.7932
0.795028
0.797398
0.799409
0.80082
0.801816
0.802532
0.802884
0.803038
0.80344
0.804155
0.804676
0.804679
0.804217
0.803329
0.80183
0.799722
0.79762
0.796231
0.78696
0.787623
0.788727
0.790422
0.792191
0.793804
0.795072
0.796048
0.796873
0.797583
0.798208
0.79865
0.798749
0.798505
0.797875
0.79677
0.795303
0.793728
0.792389
0.791604
0.782048
0.782509
0.783291
0.78458
0.786053
0.787549
0.788983
0.790236
0.791307
0.792268
0.793058
0.793493
0.793523
0.793151
0.792373
0.791318
0.79014
0.788966
0.788025
0.787503
0.777301
0.777645
0.778253
0.779313
0.780593
0.781946
0.783351
0.784748
0.786047
0.787218
0.788178
0.788706
0.788736
0.788334
0.78763
0.786767
0.785846
0.784926
0.784222
0.783838
0.772667
0.772935
0.773425
0.774327
0.775482
0.776756
0.778114
0.779548
0.781005
0.782397
0.783564
0.784232
0.784347
0.784064
0.783537
0.782865
0.782126
0.781416
0.780886
0.780593
0.768074
0.768286
0.768694
0.769487
0.770564
0.771788
0.773132
0.774601
0.776173
0.777777
0.779193
0.78007
0.780377
0.780296
0.779963
0.779478
0.778915
0.778375
0.777978
0.777748
0.763441
0.763611
0.76396
0.764681
0.765713
0.766913
0.768277
0.769815
0.771516
0.773335
0.775042
0.776225
0.776807
0.776966
0.776841
0.776545
0.77616
0.77577
0.775479
0.775296
0.758691
0.758827
0.759133
0.759812
0.76083
0.762053
0.763478
0.76513
0.767015
0.769103
0.771171
0.772731
0.773636
0.774067
0.77417
0.774064
0.773844
0.77359
0.773389
0.773243
0.753752
0.753859
0.754136
0.754798
0.755837
0.75713
0.758661
0.76048
0.762619
0.765057
0.767574
0.769589
0.770869
0.771604
0.771961
0.772059
0.772003
0.771876
0.77175
0.771633
0.748543
0.748625
0.748884
0.749552
0.750648
0.752049
0.753736
0.755785
0.758252
0.761145
0.764223
0.766778
0.7685
0.769589
0.770232
0.770561
0.770675
0.770674
0.770616
0.770524
0.74298
0.74304
0.743289
0.743985
0.745171
0.746722
0.748618
0.75096
0.753832
0.75728
0.761047
0.764274
0.766546
0.768069
0.769042
0.769632
0.769928
0.770054
0.77006
0.769991
0.736967
0.737003
0.737249
0.737989
0.739299
0.741051
0.743229
0.745959
0.749351
0.753488
0.758099
0.762152
0.765084
0.76712
0.768465
0.769337
0.769876
0.770141
0.770212
0.770162
0.730381
0.730389
0.730631
0.731436
0.732908
0.734922
0.737457
0.740682
0.744754
0.749782
0.755442
0.760475
0.764175
0.766809
0.768625
0.76983
0.770625
0.771043
0.771182
0.771151
0.723009
0.723005
0.723272
0.724154
0.725827
0.728139
0.731127
0.734963
0.73985
0.745947
0.752888
0.759135
0.763805
0.767185
0.76957
0.771217
0.772319
0.772913
0.773126
0.773113
0.714621
0.714584
0.714878
0.715883
0.717809
0.72053
0.724092
0.728715
0.734654
0.742101
0.750619
0.758336
0.764135
0.768382
0.771451
0.773649
0.775126
0.775937
0.776233
0.776234
0.704923
0.704862
0.705198
0.706366
0.708601
0.711834
0.71613
0.721758
0.729032
0.738176
0.748622
0.758083
0.765248
0.770553
0.774435
0.777273
0.77921
0.780284
0.780672
0.780684
0.693391
0.693306
0.693712
0.695091
0.697735
0.701634
0.706877
0.713795
0.72275
0.733977
0.746777
0.758365
0.767153
0.773714
0.77859
0.782208
0.784709
0.78609
0.786575
0.786588
0.679305
0.679196
0.679724
0.681423
0.684649
0.689488
0.696045
0.704706
0.715871
0.729751
0.745387
0.75943
0.770071
0.77807
0.784096
0.788578
0.791708
0.793419
0.793998
0.794006
0.661665
0.661536
0.662269
0.664468
0.668553
0.674731
0.683104
0.694099
0.708107
0.725256
0.744297
0.761227
0.774014
0.783646
0.790966
0.796436
0.800266
0.802319
0.802983
0.802979
0.639005
0.638867
0.639948
0.642942
0.64839
0.656582
0.667593
0.681825
0.699565
0.720775
0.743814
0.763998
0.779166
0.790593
0.799319
0.805867
0.810426
0.812807
0.813542
0.81352
0.609002
0.608894
0.610604
0.615012
0.622758
0.634163
0.649079
0.667775
0.690311
0.716426
0.744063
0.767865
0.785613
0.798994
0.809222
0.816955
0.822239
0.824912
0.825689
0.825642
0.567571
0.567632
0.570745
0.578074
0.590064
0.60674
0.627461
0.65218
0.680712
0.71257
0.74532
0.772997
0.793471
0.808892
0.820755
0.829729
0.835691
0.838565
0.839331
0.839249
0.507119
0.50834
0.515977
0.529761
0.549462
0.574472
0.603331
0.635725
0.671352
0.70964
0.747848
0.779529
0.802773
0.820273
0.833731
0.843913
0.850515
0.853456
0.854103
0.85398
0.434908
0.436803
0.451362
0.475166
0.505734
0.540495
0.578261
0.618895
0.66221
0.707714
0.752423
0.789259
0.816321
0.836804
0.852579
0.864377
0.871837
0.875033
0.875803
0.875803
0.360355
0.366753
0.388207
0.422163
0.462938
0.507235
0.553879
0.602802
0.653906
0.706777
0.758234
0.800477
0.831536
0.855213
0.873674
0.887348
0.895662
0.898565
0.899187
0.899297
0.2997
0.308242
0.334328
0.375272
0.423926
0.476292
0.530895
0.587545
0.646061
0.705988
0.763844
0.81114
0.845896
0.872374
0.892819
0.907745
0.916466
0.919992
0.921193
0.921378
0.25021
0.25933
0.288906
0.334958
0.3897
0.448566
0.509868
0.573311
0.638555
0.705023
0.768857
0.820801
0.858836
0.887651
0.909751
0.925822
0.9355
0.939753
0.941197
0.941409
0.208628
0.217981
0.249924
0.299865
0.359569
0.423843
0.490831
0.560193
0.63145
0.703892
0.77322
0.8294
0.870309
0.901065
0.924427
0.941345
0.951868
0.956668
0.958336
0.958576
0.172597
0.182026
0.215701
0.268807
0.332577
0.401441
0.47339
0.547989
0.624662
0.702563
0.776966
0.836997
0.880428
0.912777
0.937095
0.954696
0.965899
0.971142
0.972954
0.973219
0.140553
0.149987
0.184981
0.24073
0.307886
0.380707
0.457027
0.53633
0.617959
0.700923
0.78006
0.84364
0.889289
0.922963
0.948057
0.966229
0.977779
0.983422
0.985316
0.985592
0.111299
0.120755
0.15682
0.214784
0.284841
0.361117
0.441313
0.524883
0.611082
0.698799
0.782426
0.849361
0.897059
0.931912
0.957651
0.97616
0.987977
0.993838
0.995802
0.996095
0.0840271
0.0935243
0.130556
0.190381
0.262962
0.34226
0.425927
0.513382
0.60382
0.696036
0.783995
0.854196
0.903899
0.939892
0.966265
0.985106
0.997054
1.00305
1.00499
1.00526
0.0581971
0.0677534
0.10567
0.167081
0.241893
0.323851
0.410634
0.501636
0.596016
0.692507
0.7847
0.85818
0.909932
0.947123
0.974147
0.993324
1.00543
1.01141
1.01334
1.0135
0.033311
0.0430487
0.0817426
0.144591
0.221375
0.305688
0.39528
0.489518
0.587564
0.688122
0.784483
0.861333
0.915271
0.953779
0.981532
1.00105
1.01327
1.01922
1.02108
1.02125
0.0091429
0.01911
0.0585316
0.122764
0.201249
0.287648
0.379766
0.476955
0.578389
0.682814
0.783301
0.863658
0.919986
0.959985
0.988579
1.0085
1.02083
1.02672
1.02847
1.0286
-0.0144106
-0.00422001
0.0359948
0.101445
0.181425
0.269685
0.364054
0.463912
0.568464
0.676535
0.781097
0.865132
0.924109
0.965821
0.995396
1.01576
1.02816
1.0339
1.0355
1.03556
-0.037497
-0.0269813
0.0139292
0.0805456
0.161874
0.251775
0.348146
0.4504
0.557792
0.669274
0.777816
0.865687
0.927619
0.97134
1.00206
1.02288
1.03527
1.0408
1.04218
1.04216
-0.0600947
-0.049285
-0.00762514
0.0600439
0.14259
0.233941
0.332086
0.436463
0.546408
0.661027
0.773405
0.865228
0.930454
0.976562
1.00866
1.02994
1.04217
1.04731
1.04844
1.04835
-0.0822453
-0.0711064
-0.0286525
0.0399747
0.123605
0.216225
0.315924
0.422171
0.534371
0.651822
0.767827
0.863661
0.932504
0.981464
1.01532
1.03711
1.04892
1.05344
1.05425
1.05409
-0.103757
-0.0923608
-0.0491441
0.0203734
0.104971
0.198704
0.299733
0.407601
0.521764
0.641727
0.761071
0.860888
0.933614
0.985945
1.02214
1.04468
1.05578
1.05922
1.05953
1.0593
-0.124767
-0.113007
-0.0690675
0.00126697
0.0867242
0.181423
0.283609
0.39284
0.508682
0.630832
0.753159
0.856804
0.933587
0.989793
1.02914
1.05313
1.0634
1.065
1.0643
1.06396
-0.145104
-0.133014
-0.0883867
-0.0172916
0.0689455
0.164469
0.267637
0.378013
0.495243
0.619215
0.744144
0.851326
0.932212
0.992661
1.03603
1.06282
1.07307
1.07226
1.06919
1.06785
-0.164823
-0.152415
-0.107044
-0.0352468
0.0516753
0.147911
0.251901
0.363205
0.481563
0.607022
0.734115
0.844388
0.929287
0.994092
1.04208
1.07336
1.0861
1.08452
1.0774
1.06789
-0.183835
-0.17117
-0.125135
-0.0527494
0.0347036
0.131464
0.23606
0.348003
0.46718
0.593727
0.722508
0.835369
0.924226
0.993501
1.04619
1.08339
1.10206
1.10301
1.09311
1.08521
-0.202089
-0.189193
-0.142651
-0.0697556
0.0180401
0.115126
0.220135
0.332394
0.452056
0.579228
0.709155
0.823931
0.916337
0.99012
1.04598
1.08747
1.10903
1.11521
1.07808
1.02489
-0.21929
-0.205708
-0.159479
-0.0861935
0.00158395
0.0987571
0.20408
0.316496
0.436257
0.563595
0.694009
0.809917
0.904629
0.983564
1.03937
1.07465
1.09711
1.08455
1.02765
0.963451
-0.235766
-0.221253
-0.175445
-0.101405
-0.0143056
0.0828399
0.187671
0.300371
0.419928
0.547002
0.677099
0.793179
0.888004
0.974917
1.02447
1.07584
1.04433
1.00195
0.932212
0.864139
-0.221768
-0.203796
-0.154846
-0.0762491
0.0159709
0.116824
0.226965
0.342506
0.465009
0.59537
0.719092
0.822169
0.908881
1.00164
1.04764
0.967868
0.921737
0.858616
0.785824
0.737684
-0.246151
-0.229932
-0.194172
-0.125549
-0.0389553
0.057554
0.162523
0.274579
0.393321
0.519085
0.647177
0.761338
0.853002
0.933237
1.00549
1.00471
0.883374