/*--------------------------------*- C++ -*----------------------------------*\
  =========                 |
  \\      /  F ield         | OpenFOAM: The Open Source CFD Toolbox
   \\    /   O peration     | Website:  https://openfoam.org
    \\  /    A nd           | Version:  9
     \\/     M anipulation  |
\*---------------------------------------------------------------------------*/
FoamFile
{
    format      ascii;
    class       surfaceScalarField;
    location    "38";
    object      phi;
}
// * * * * * * * * * * * * * * * * * * * * * * * * * * * * * * * * * * * * * //

dimensions      [0 3 -1 0 0 0 0];

internalField   nonuniform List<scalar> 
17370
(
-0.0916071
0.096007
0.284611
-0.0775907
0.0594145
0.364952
-0.0430367
0.0316176
0.427587
-0.0223132
0.0162595
0.505305
-0.0116642
0.00878771
0.602279
-0.00657444
0.00509085
0.720541
-0.00386056
0.0029897
0.863777
-0.0022273
0.00165606
1.03602
-0.00112896
0.000710322
1.24292
-0.000301135
-9.22856e-05
1.49158
0.000478235
-0.00088194
1.49159
0.00128314
-0.0017894
1.2432
0.00234415
-0.00309341
1.03639
0.00395713
-0.00518185
0.864131
0.00665937
-0.0088633
0.721261
0.0117287
-0.0163096
0.603796
0.0223497
-0.0316397
0.508729
0.0430438
-0.0594118
0.432536
0.0775897
-0.0960046
0.36519
0.0916196
0.197391
-0.127087
0.0880172
0.0390696
-0.36435
0.354024
-0.0714795
0.0818057
-0.446655
0.454246
-0.0791695
0.0715782
-0.521009
0.529105
-0.06373
0.0556343
-0.612987
0.620757
-0.0482478
0.0404773
-0.727159
0.733679
-0.0338639
0.0273434
-0.867579
0.872419
-0.0221449
0.0173056
-1.03856
1.04189
-0.0136224
0.0102978
-1.24471
1.24711
-0.00775617
0.00535662
-1.49284
1.49485
-0.0033964
0.0013861
-1.49269
1.49451
0.000431036
-0.00224601
-1.24411
1.24602
0.00421634
-0.00612567
-1.03761
1.04009
0.00846366
-0.0109494
-0.866188
0.869828
0.0142178
-0.0178576
-0.724596
0.729759
0.0226557
-0.0278179
-0.609069
0.615642
0.034297
-0.0408699
-0.515127
0.522467
0.0485938
-0.0559341
-0.43988
0.447666
0.0639637
-0.0717493
-0.374712
0.377358
0.0792547
-0.0819008
-0.256905
0.224449
0.0715531
-0.0390971
-0.0687997
0.0591852
0.00961454
-0.052124
0.0589598
-0.374831
0.367995
-0.0581158
0.0542768
-0.453939
0.457778
-0.0487908
0.0442318
-0.527606
0.532165
-0.0396809
0.0357849
-0.620789
0.624685
-0.0315754
0.0275905
-0.734649
0.738634
-0.0232525
0.0193849
-0.873945
0.877812
-0.0153591
0.0119155
-1.04335
1.04679
-0.00840774
0.0053842
-1.24864
1.25166
-0.00218501
-0.000790043
-1.49694
1.49991
0.00374413
-0.00688623
-1.49742
1.50056
0.00983036
-0.0132362
-1.25007
1.25348
0.0165823
-0.0205038
-1.04566
1.04958
0.0242851
-0.0285384
-0.877147
0.8814
0.0324502
-0.0365794
-0.738995
0.743125
0.0404035
-0.0448812
-0.625986
0.630463
0.0493807
-0.0548095
-0.535028
0.540457
0.0585852
-0.0593541
-0.458089
0.458858
0.052419
-0.0320463
-0.336785
0.316412
0.00966755
-0.0686767
0.0590092
-0.0533924
0.0492781
0.00411433
-0.0332649
0.0436984
-0.358538
0.348104
-0.0473816
0.0468001
-0.459562
0.460143
-0.043876
0.0406661
-0.536112
0.539322
-0.0369915
0.0336403
-0.628371
0.631722
-0.0300149
0.0267888
-0.742009
0.745236
-0.0233595
0.0201841
-0.88131
0.884486
-0.0166126
0.013277
-1.05021
1.05355
-0.00959529
0.00620588
-1.25491
1.2583
-0.00243024
-0.00117484
-1.50326
1.50686
0.00475273
-0.00844834
-1.50406
1.50775
0.0117292
-0.0152675
-1.25705
1.26058
0.0184615
-0.0218776
-1.05329
1.05671
0.0249223
-0.0282253
-0.885008
0.888311
0.0313455
-0.0348585
-0.746812
0.750325
0.0381068
-0.0416701
-0.634594
0.638157
0.0447845
-0.0476047
-0.544609
0.547429
0.0480813
-0.0442544
-0.456986
0.453159
0.0336473
-0.0163567
-0.297114
0.279823
0.00417186
-0.0531657
0.0489939
-0.0461044
0.0435457
0.00255875
-0.0230714
0.0334338
-0.337499
0.327136
-0.0391782
0.0401337
-0.459882
0.458926
-0.0388875
0.0365619
-0.541964
0.544289
-0.0339213
0.0313785
-0.634672
0.637215
-0.028412
0.025584
-0.748316
0.751144
-0.0223775
0.019394
-0.88754
0.890523
-0.0160729
0.0129635
-1.05671
1.05982
-0.00943334
0.00605645
-1.26168
1.26506
-0.00216846
-0.00161225
-1.51058
1.51436
0.00535879
-0.0091413
-1.51154
1.51532
0.0123744
-0.0157129
-1.26405
1.26738
0.0186316
-0.0217424
-1.05992
1.06303
0.0245466
-0.0275765
-0.89151
0.89454
0.0302578
-0.0330721
-0.75351
0.756324
0.0354782
-0.0379737
-0.641123
0.643618
0.0401761
-0.0412642
-0.549278
0.550366
0.0401482
-0.0341729
-0.448056
0.442081
0.0235598
-0.0103449
-0.264665
0.25145
0.00262984
-0.0457583
0.0431285
-0.0414231
0.0396193
0.00180384
-0.0169695
0.0262697
-0.31725
0.30795
-0.0328815
0.0350132
-0.45735
0.455218
-0.0345875
0.032895
-0.546304
0.547997
-0.0306722
0.0285524
-0.639508
0.641628
-0.0261317
0.0237788
-0.753732
0.756085
-0.0209987
0.0182824
-0.893369
0.896086
-0.0151278
0.01212
-1.06284
1.06585
-0.00868543
0.00540087
-1.26836
1.27165
-0.00159636
-0.00211975
-1.51811
1.52183
0.00579098
-0.00946179
-1.51906
1.52273
0.0125652
-0.0157591
-1.27067
1.27386
0.0185252
-0.0214078
-1.06606
1.06894
0.0238878
-0.0264331
-0.897324
0.899869
0.0285928
-0.030818
-0.758771
0.760996
0.0327658
-0.0348043
-0.645864
0.647902
0.0363207
-0.0365314
-0.550969
0.551179
0.0341551
-0.0272089
-0.435526
0.42858
0.0175754
-0.00743449
-0.239915
0.229774
0.00189034
-0.0409301
0.0390398
-0.0380657
0.0367106
0.00135516
-0.0129694
0.020983
-0.299293
0.29128
-0.0277678
0.0307041
-0.452644
0.449707
-0.0309246
0.0298129
-0.549411
0.550523
-0.0278257
0.0259131
-0.643658
0.645571
-0.0237234
0.0216109
-0.758312
0.760425
-0.019143
0.0167127
-0.89862
0.90105
-0.0138346
0.0110187
-1.06873
1.07154
-0.00773415
0.00455894
-1.27485
1.27803
-0.000867864
-0.0027296
-1.52547
1.52907
0.00627082
-0.00979417
-1.52634
1.52986
0.0127429
-0.0157242
-1.27699
1.27997
0.0182313
-0.0207587
-1.07167
1.0742
0.0228826
-0.025048
-0.90219
0.904355
0.0269145
-0.028857
-0.763042
0.764985
0.0305543
-0.0323242
-0.649784
0.651554
0.0331854
-0.0326705
-0.551035
0.55052
0.0293892
-0.0221506
-0.421432
0.414194
0.0137122
-0.00571916
-0.22081
0.212817
0.00146015
-0.0373936
0.0359335
-0.0355264
0.0344819
0.00104449
-0.0101397
0.0169263
-0.283902
0.277116
-0.0234632
0.0268672
-0.446513
0.443109
-0.0276695
0.0269916
-0.551402
0.55208
-0.0252391
0.0234721
-0.647441
0.649208
-0.02144
0.0194745
-0.762475
0.764441
-0.0171677
0.0149008
-0.903344
0.905611
-0.0122298
0.0096077
-1.07419
1.07681
-0.00652028
0.00350299
-1.28109
1.2841
2.7021e-05
-0.00346004
-1.53257
1.536
0.0068253
-0.0101425
-1.5333
1.53661
0.0128756
-0.0155829
-1.28284
1.28555
0.0178236
-0.0200645
-1.07659
1.07883
0.0219527
-0.0238787
-0.906381
0.908307
0.0255321
-0.027254
-0.766785
0.768507
0.0287567
-0.0302163
-0.653195
0.654654
0.0305795
-0.0293683
-0.549676
0.548465
0.0254921
-0.0183623
-0.406989
0.39986
0.0110459
-0.00457282
-0.205658
0.199185
0.0011719
-0.0346367
0.0334648
-0.0335642
0.03275
0.000814201
-0.0080361
0.0137427
-0.270896
0.265189
-0.0198004
0.0234145
-0.439583
0.435969
-0.024715
0.0243052
-0.552646
0.553055
-0.0228524
0.0212199
-0.650948
0.65258
-0.019307
0.0174448
-0.766367
0.768229
-0.0152467
0.013079
-0.907774
0.909942
-0.0105238
0.00802715
-1.0793
1.0818
-0.00510557
0.00225361
-1.28699
1.28984
0.00108576
-0.00434167
-1.53932
1.54258
0.00751206
-0.0105951
-1.53982
1.5429
0.0131008
-0.015562
-1.28816
1.29062
0.0175964
-0.0196244
-1.08099
1.08302
0.0213198
-0.0230314
-0.910125
0.911837
0.0244914
-0.0260127
-0.770104
0.771625
0.0273171
-0.0283998
-0.655902
0.656984
0.0284043
-0.0265491
-0.546944
0.545089
0.0223134
-0.0155017
-0.392888
0.386076
0.00914055
-0.00376645
-0.193315
0.187941
0.000968858
-0.0324097
0.0314408
-0.0320346
0.0313985
0.000636064
-0.00641008
0.0111897
-0.259973
0.255194
-0.0166554
0.0202731
-0.432351
0.428733
-0.0219007
0.0217171
-0.55338
0.553563
-0.0204982
0.0189296
-0.654218
0.655787
-0.017083
0.0152886
-0.770066
0.77186
-0.0131799
0.0111075
-0.911992
0.914064
-0.00866642
0.00628144
-1.08416
1.08654
-0.00349142
0.000779231
-1.29257
1.29528
0.00237411
-0.00542376
-1.54571
1.54876
0.00836903
-0.0112073
-1.54587
1.54871
0.0134913
-0.0157106
-1.293
1.29522
0.017521
-0.0193093
-1.08495
1.08674
0.0207985
-0.0223086
-0.913453
0.914963
0.0236109
-0.024978
-0.773046
0.774413
0.0261565
-0.0268649
-0.657863
0.658572
0.0265195
-0.024158
-0.543003
0.540641
0.0197392
-0.0133326
-0.379481
0.373074
0.00775161
-0.0031864
-0.183013
0.178448
0.000823347
-0.0305581
0.0297347
-0.0308434
0.0303513
0.000492017
-0.0050954
0.00906968
-0.250843
0.246869
-0.0138942
0.0173716
-0.425194
0.421717
-0.0192053
0.0192383
-0.553683
0.55365
-0.0182462
0.0167373
-0.657393
0.658902
-0.0149378
0.0131778
-0.773641
0.775401
-0.0111072
0.00907679
-0.916024
0.918055
-0.00669596
0.00438298
-1.0888
1.09111
-0.00169407
-0.000896914
-1.29787
1.30046
0.0038834
-0.00673717
-1.55167
1.55453
0.00946287
-0.012064
-1.55143
1.55403
0.0141386
-0.0161398
-1.29737
1.29937
0.0177598
-0.0193468
-1.08846
1.09004
0.0206583
-0.0219858
-0.91638
0.917708
0.023129
-0.0243229
-0.775676
0.77687
0.0253221
-0.0256664
-0.659076
0.659421
0.0249651
-0.0221825
-0.538099
0.535317
0.0176861
-0.011692
-0.366895
0.360901
0.00673475
-0.00277008
-0.17422
0.170255
0.000721261
-0.0289763
0.028255
-0.0299296
0.0295606
0.00036906
-0.00398282
0.00724038
-0.243279
0.240021
-0.0113986
0.0146106
-0.418391
0.415179
-0.0165115
0.0167221
-0.553577
0.553367
-0.0158526
0.014457
-0.660421
0.661817
-0.012694
0.0109482
-0.777142
0.778888
-0.00888692
0.00687326
-0.919976
0.921989
-0.00453033
0.00227419
-1.0933
1.09555
0.000323274
-0.0028166
-1.30293
1.30543
0.00566579
-0.00835885
-1.55726
1.55995
0.0108952
-0.0132725
-1.55652
1.55889
0.0151301
-0.0168903
-1.30129
1.30305
0.0182997
-0.0196681
-1.09156
1.09293
0.0207914
-0.0219203
-0.918962
0.920091
0.0228962
-0.0239155
-0.77796
0.77898
0.0246593
-0.0247283
-0.659611
0.65968
0.0236451
-0.0205312
-0.532393
0.529279
0.0160408
-0.0104406
-0.355135
0.349534
0.00598113
-0.00246721
-0.166551
0.163037
0.000648239
-0.0275852
0.026937
-0.029255
0.0289967
0.000258311
-0.00299435
0.00559616
-0.237117
0.234515
-0.00908128
0.0119384
-0.412176
0.409319
-0.0137794
0.014076
-0.553182
0.552885
-0.0132584
0.0119188
-0.663262
0.664602
-0.0101503
0.00839225
-0.780613
0.782371
-0.00633325
0.00433962
-0.923867
0.92586
-0.00203601
-0.000168038
-1.09767
1.09988
0.00270506
-0.00510973
-1.3078
1.3102
0.00782291
-0.0103441
-1.56252
1.56504
0.0126741
-0.0148135
-1.56115
1.56329
0.0164469
-0.0179566
-1.30474
1.30625
0.0191339
-0.0202524
-1.09423
1.09535
0.0211628
-0.022087
-0.92115
0.922075
0.0228942
-0.023726
-0.779873
0.780705
0.024234
-0.0240423
-0.659588
0.659396
0.0226051
-0.0192185
-0.526061
0.522675
0.014767
-0.00950947
-0.344144
0.338886
0.00543801
-0.00225692
-0.159725
0.156544
0.000600528
-0.026329
0.0257285
-0.0287977
0.0286465
0.000151227
-0.0020635
0.00403846
-0.232251
0.230276
-0.00683214
0.00925814
-0.406714
0.404288
-0.0109421
0.0112705
-0.552659
0.552331
-0.0105085
0.00922204
-0.666017
0.667303
-0.00745502
0.00567359
-0.784102
0.785883
-0.00357907
0.00155393
-0.927724
0.929749
0.000772743
-0.00298676
-1.10197
1.10418
0.00549308
-0.00783293
-1.31249
1.31483
0.0104224
-0.0127773
-1.56742
1.56977
0.0149006
-0.0167937
-1.56529
1.56719
0.0181967
-0.0194526
-1.30767
1.30893
0.0204126
-0.0213089
-1.09639
1.09728
0.0220242
-0.0227318
-0.922926
0.923633
0.0233334
-0.0239403
-0.781454
0.782061
0.0241185
-0.0236483
-0.658992
0.658522
0.0218719
-0.0182291
-0.519212
0.51557
0.0138146
-0.00883768
-0.333822
0.328845
0.005062
-0.00212047
-0.153524
0.150583
0.000573283
-0.025162
0.0245887
-0.0285518
0.0285084
4.34557e-05
-0.00114136
0.00249357
-0.228633
0.22728
-0.00456735
0.00648286
-0.402154
0.400239
-0.00789615
0.00817995
-0.552125
0.551841
-0.00744829
0.00620268
-0.668679
0.669924
-0.00441567
0.00257807
-0.787632
0.789469
-0.000406024
-0.00168503
-0.931651
0.933742
0.0040624
-0.00629359
-1.10628
1.10851
0.00878617
-0.0110793
-1.31705
1.31934
0.0135729
-0.0157831
-1.572
1.57421
0.0177079
-0.019346
-1.56894
1.57058
0.0204901
-0.0214555
-1.31011
1.31108
0.0221494
-0.0227656
-1.0981
1.09872
0.023228
-0.0236768
-0.924254
0.924703
0.0240664
-0.0244553
-0.782537
0.782925
0.0243125
-0.0234798
-0.657739
0.656906
0.0213361
-0.0174699
-0.511883
0.508017
0.0131036
-0.00836031
-0.324053
0.319309
0.00480961
-0.00203738
-0.147773
0.145001
0.000560038
-0.0240443
0.0234843
-0.0285235
0.0285904
-6.68798e-05
-0.000179484
0.000900009
-0.226262
0.225541
-0.0022261
0.00356175
-0.398661
0.397325
-0.00458506
0.00470184
-0.551781
0.551664
-0.00388258
0.00257482
-0.671328
0.672636
-0.000708621
-0.00120341
-0.791261
0.793173
0.00344017
-0.00557132
-0.935676
0.937807
0.00798548
-0.0102411
-1.1106
1.11286
0.0127418
-0.0150097
-1.32152
1.32378
0.017415
-0.0194688
-1.57627
1.57832
0.0211719
-0.022534
-1.57205
1.57341
0.0234026
-0.0240412
-1.31193
1.31257
0.0244285
-0.0246936
-1.09922
1.09948
0.0248446
-0.0249825
-0.92507
0.925208
0.0251462
-0.0252615
-0.783082
0.783197
0.024883
-0.0236271
-0.655722
0.654466
0.0211352
-0.0170515
-0.504169
0.500085
0.0126949
-0.00810337
-0.314735
0.310143
0.00469478
-0.00201556
-0.142332
0.139653
0.000564032
-0.0229491
0.0223851
-0.0287239
0.0289281
-0.0002042
0.000802059
-0.000782458
-0.225167
0.225147
0.000267229
0.000423815
-0.396354
0.395663
-0.000984884
0.000891463
-0.551844
0.551937
2.20094e-05
-0.00141746
-0.674147
0.675543
0.00337455
-0.00539086
-0.795034
0.79705
0.00776055
-0.0100214
-0.939791
0.942052
0.0125716
-0.014929
-1.11499
1.11735
0.0174962
-0.0197696
-1.32594
1.32821
0.0221034
-0.0240009
-1.58022
1.58212
0.0254698
-0.0265287
-1.5746
1.57566
0.0270953
-0.0273888
-1.31309
1.31338
0.027459
-0.0273969
-1.09963
1.09957
0.0272502
-0.0270654
-0.925241
0.925056
0.0269194
-0.0266459
-0.782956
0.782682
0.0259425
-0.024193
-0.652926
0.651177
0.0212982
-0.0169483
-0.49603
0.49168
0.012555
-0.00804313
-0.305702
0.30119
0.00470301
-0.00204871
-0.137051
0.134397
0.000583854
-0.0218405
0.0212566
-0.0291972
0.0295428
-0.000345582
0.00194013
-0.00258002
-0.225438
0.226078
0.00296672
-0.00305744
-0.395373
0.395463
0.00311913
-0.00352453
-0.552438
0.552843
0.00455942
-0.00604017
-0.677149
0.67863
0.0081193
-0.0102959
-0.799023
0.801199
0.0128765
-0.0153308
-0.944189
0.946643
0.0180737
-0.0205723
-1.1196
1.1221
0.0232428
-0.0255458
-1.33037
1.33267
0.0278295
-0.0295882
-1.58386
1.58562
0.0308185
-0.0315349
-1.57651
1.57722
0.0317664
-0.0316641
-1.31354
1.31344
0.0313705
-0.030921
-1.09935
1.0989
0.0304411
-0.029886
-0.924697
0.924142
0.0293766
-0.0286515
-0.781987
0.781262
0.0274867
-0.0251364
-0.649203
0.646853
0.0218182
-0.0171948
-0.487398
0.482774
0.0127155
-0.00819124
-0.296812
0.292288
0.00483446
-0.00213286
-0.131797
0.129096
0.000616674
-0.0206895
0.0200728
-0.0299646
0.0304887
-0.000524134
0.00321303
-0.00466611
-0.227144
0.228597
0.00599019
-0.00691321
-0.395939
0.396862
0.00774361
-0.00862811
-0.553807
0.554692
0.0099659
-0.0116695
-0.680422
0.682125
0.0139885
-0.0163861
-0.803336
0.805733
0.0192017
-0.0218572
-0.948946
0.951601
0.0247996
-0.0274531
-1.12446
1.12712
0.0302472
-0.0326028
-1.33485
1.33721
0.0348446
-0.0364449
-1.58721
1.58881
0.0374065
-0.0377377
-1.5777
1.57803
0.0375782
-0.0370158
-1.31312
1.31256
0.03628
-0.0353514
-1.0982
1.09727
0.0344486
-0.0334595
-0.923326
0.922337
0.032596
-0.0313524
-0.780044
0.7788
0.02967
-0.0267421
-0.64438
0.641452
0.0229637
-0.0179705
-0.478234
0.473241
0.0132859
-0.00861159
-0.28786
0.283186
0.00512428
-0.00228049
-0.12642
0.123577
0.000664354
-0.0194718
0.0188074
-0.0310996
0.0318505
-0.000750901
0.0047284
-0.00706093
-0.230477
0.23281
0.0094293
-0.0112479
-0.398212
0.40003
0.0129119
-0.014364
-0.556262
0.557715
0.0161255
-0.0181538
-0.684248
0.686276
0.0208233
-0.0235354
-0.808101
0.810814
0.0266824
-0.0296253
-0.954108
0.957051
0.0328631
-0.0357565
-1.12965
1.13254
0.038756
-0.0412125
-1.33943
1.34189
0.0434282
-0.0448457
-1.5902
1.59161
0.0454911
-0.045403
-1.57809
1.578
0.0447864
-0.0437283
-1.31174
1.31068
0.0425176
-0.0410593
-1.09603
1.09457
0.0396849
-0.038203
-0.921012
0.919531
0.0369178
-0.035119
-0.777035
0.775236
0.032892
-0.0292916
-0.638437
0.634837
0.0249327
-0.0194305
-0.46832
0.462818
0.0143977
-0.00939618
-0.278561
0.273559
0.00562426
-0.00251022
-0.120715
0.117601
0.000730381
-0.0181556
0.0174252
-0.03268
0.0337128
-0.00103277
0.00653222
-0.00988007
-0.235569
0.238917
0.0134433
-0.0162837
-0.402383
0.405224
0.0188681
-0.0209454
-0.559985
0.562062
0.0232014
-0.0256256
-0.688811
0.691236
0.0287547
-0.0319134
-0.813511
0.81667
0.0355647
-0.0389593
-0.959892
0.963286
0.0426541
-0.0458963
-1.13535
1.13859
0.049172
-0.0517579
-1.34422
1.34681
0.053951
-0.0551693
-1.59281
1.59403
0.0554576
-0.0548639
-1.57759
1.577
0.0537419
-0.0520964
-1.30925
1.30761
0.0503691
-0.0483654
-1.09272
1.09071
0.0465048
-0.0444999
-0.917625
0.91562
0.0426761
-0.0402647
-0.772897
0.770485
0.0373597
-0.032978
-0.631166
0.626784
0.0279462
-0.0217934
-0.457408
0.451255
0.0162188
-0.0106436
-0.268539
0.262964
0.00638689
-0.00284487
-0.114413
0.110871
0.000822187
-0.0167024
0.0158802
-0.0348098
0.03622
-0.00141019
0.00884499
-0.0134227
-0.242662
0.24724
0.018373
-0.0223814
-0.408748
0.412756
0.0260446
-0.0289217
-0.565222
0.568099
0.0318889
-0.0349114
-0.694307
0.697329
0.0387097
-0.0424886
-0.819844
0.823623
0.0468122
-0.050775
-0.966618
0.97058
0.0550037
-0.0586178
-1.14174
1.14536
0.0621424
-0.0647892
-1.34921
1.35186
0.0668504
-0.0677399
-1.59494
1.59583
0.0675251
-0.0662891
-1.576
1.57476
0.0645476
-0.0622209
-1.30553
1.30321
0.0599122
-0.0573191
-1.08821
1.08562
0.0549505
-0.052373
-0.913076
0.910498
0.0499375
-0.0468322
-0.767541
0.764436
0.043202
-0.0379809
-0.622368
0.617147
0.03216
-0.0251318
-0.445195
0.438167
0.0187538
-0.0123249
-0.257291
0.250862
0.00738306
-0.00326906
-0.107206
0.103092
0.000935312
-0.0150616
0.0141263
-0.0376678
0.0396166
-0.00194882
0.0120249
-0.0181704
-0.252146
0.258292
0.0247628
-0.0301092
-0.417724
0.42307
0.0350391
-0.0389538
-0.572451
0.576366
0.0429223
-0.0468378
-0.7012
0.705116
0.0515991
-0.0561776
-0.827441
0.832019
0.0612681
-0.0658212
-0.97446
0.979013
0.0705607
-0.074499
-1.14883
1.15277
0.0781953
-0.0808068
-1.35426
1.35687
0.0825874
-0.0829886
-1.59631
1.59671
0.0821129
-0.0800774
-1.57302
1.57098
0.0775823
-0.0744441
-1.30036
1.29722
0.0714129
-0.0680797
-1.08238
1.07905
0.0651192
-0.0619966
-0.907276
0.904154
0.0589629
-0.0551746
-0.760761
0.756973
0.0507538
-0.0445261
-0.611889
0.605661
0.037671
-0.0294338
-0.431199
0.422962
0.0219422
-0.014371
-0.244273
0.236702
0.00856134
-0.00375935
-0.0988252
0.0940233
0.00106437
-0.0131945
0.0121302
-0.041561
0.0443426
-0.00278163
0.0166991
-0.0249229
-0.264683
0.272907
0.0335346
-0.0404688
-0.429894
0.436829
0.0469
-0.052028
-0.582203
0.587331
0.0572944
-0.062432
-0.710053
0.71519
0.068343
-0.0738044
-0.836608
0.84207
0.079698
-0.084833
-0.983449
0.988584
0.0900363
-0.0942143
-1.1565
1.16068
0.0979501
-0.100371
-1.35913
1.36155
0.101668
-0.101366
-1.59657
1.59626
0.0996347
-0.0966138
-1.56832
1.5653
0.0932119
-0.0891071
-1.29345
1.28935
0.0852553
-0.0811127
-1.07498
1.07083
0.0775011
-0.0737209
-0.900203
0.896423
0.070049
-0.0654527
-0.752513
0.747917
0.060025
-0.0524677
-0.599297
0.59174
0.0442645
-0.0344745
-0.414752
0.404962
0.0255716
-0.0166068
-0.228964
0.219999
0.00979849
-0.0042526
-0.0890844
0.0835385
0.00118833
-0.0110801
0.00989181
-0.0470475
0.051262
-0.00421443
0.0240987
-0.0352069
-0.281407
0.292515
0.0464911
-0.0555557
-0.446241
0.455306
0.0637346
-0.0702251
-0.594925
0.601415
0.0769921
-0.0834734
-0.721266
0.727748
0.0905917
-0.0969207
-0.847494
0.853823
0.103543
-0.109138
-0.993544
0.999138
0.114599
-0.118778
-1.16452
1.1687
0.122237
-0.124153
-1.36345
1.36537
0.124617
-0.12331
-1.59526
1.59395
0.120457
-0.116231
-1.56154
1.55731
0.111792
-0.106609
-1.28452
1.27934
0.101825
-0.0967359
-1.06581
1.06072
0.0923429
-0.0877538
-0.891514
0.886924
0.0833119
-0.0775788
-0.742369
0.736636
0.0708453
-0.0616231
-0.583913
0.574691
0.0517713
-0.0400917
-0.39518
0.3835
0.0294801
-0.0189003
-0.210949
0.200369
0.0109982
-0.00469547
-0.0779347
0.071632
0.001287
-0.0087419
0.00745491
-0.0551982
0.0624774
-0.00727928
0.0374795
-0.052944
-0.304484
0.319949
0.0680417
-0.0799194
-0.468233
0.48011
0.08995
-0.097795
-0.610939
0.618784
0.106074
-0.113714
-0.734871
0.742511
0.121701
-0.12849
-0.859913
0.866701
0.135323
-0.140851
-1.00433
1.00986
0.145956
-0.149524
-1.17226
1.17583
0.152032
-0.152799
-1.36645
1.36722
0.151775
-0.148897
-1.59165
1.58877
0.14444
-0.138628
-1.55216
1.54635
0.132877
-0.126448
-1.27338
1.26695
0.120663
-0.114595
-1.05467
1.0486
0.109371
-0.103826
-0.880842
0.875297
0.0984278
-0.0913326
-0.729614
0.722519
0.0831042
-0.0719333
-0.565009
0.553838
0.0600273
-0.0460463
-0.371711
0.35773
0.0335039
-0.0212032
-0.189929
0.177628
0.0121499
-0.00508339
-0.0654759
0.0584094
0.00135218
-0.00624368
0.0048915
-0.0693298
0.0733353
-0.00400556
0.0284009
-0.0417589
-0.337986
0.351344
0.0551667
-0.0658855
-0.497153
0.507872
0.0754571
-0.0846043
-0.630067
0.639214
0.0949969
-0.104174
-0.749883
0.75906
0.114381
-0.123492
-0.872668
0.881779
0.133135
-0.141586
-1.01446
1.02291
0.150179
-0.157248
-1.17826
1.18533
0.163798
-0.168423
-1.36672
1.37135
0.17156
-0.172196
-1.58453
1.58516
0.17024
-0.166192
-1.5393
1.53525
0.161158
-0.154748
-1.2596
1.25319
0.148695
-0.141582
-1.04152
1.03441
0.135406
-0.128689
-0.867981
0.861264
0.122066
-0.112917
-0.713902
0.704753
0.101224
-0.0855203
-0.541759
0.526055
0.0693107
-0.050869
-0.343352
0.324911
0.0353943
-0.0212137
-0.165768
0.151587
0.0114798
-0.00450235
-0.0520353
0.0450579
0.00108868
-0.00370855
0.00261986
-0.0804096
0.0784414
0.00196817
0.00658349
-0.0152107
-0.367576
0.376203
0.0253668
-0.0330694
-0.523304
0.531006
0.0409487
-0.0490045
-0.650753
0.658809
0.0586499
-0.0674453
-0.768053
0.776849
0.0767609
-0.0852662
-0.890424
0.898929
0.0942026
-0.10167
-1.03108
1.03855
0.109411
-0.115396
-1.19216
1.19815
0.120839
-0.124328
-1.37556
1.37904
0.125956
-0.125289
-1.58474
1.58407
0.122063
-0.116741
-1.53007
1.52474
0.110409
-0.10264
-1.24591
1.23814
0.0953367
-0.0872458
-1.0264
1.01831
0.0799161
-0.0717971
-0.851953
0.843834
0.0640927
-0.0550959
-0.691175
0.682178
0.045503
-0.0339559
-0.507827
0.49628
0.0237126
-0.0144525
-0.305989
0.296729
0.00838496
-0.00402735
-0.138041
0.133684
0.00169819
-0.000479051
-0.0386192
0.0374001
7.09899e-05
-0.00149879
0.0014278
-0.0815783
0.0786435
0.00293484
-0.00245553
-0.00232921
-0.387392
0.392176
0.00912323
-0.0149419
-0.542764
0.548583
0.0211613
-0.0282041
-0.668738
0.67578
0.0366442
-0.0443783
-0.784892
0.792626
0.0528009
-0.0602988
-0.906755
0.914253
0.0679015
-0.0745951
-1.04583
1.05253
0.0813348
-0.0866532
-1.2037
1.20901
0.0910959
-0.0937823
-1.3819
1.38458
0.09503
-0.0940422
-1.58283
1.58184
0.090738
-0.0855511
-1.51904
1.51385
0.0795064
-0.0722184
-1.23044
1.22315
0.0647868
-0.0563907
-1.00961
1.00122
0.0482158
-0.0386304
-0.834001
0.824415
0.0296975
-0.0200917
-0.668681
0.659075
0.0118123
-0.00343186
-0.482391
0.474011
-0.00181186
0.00457301
-0.286295
0.283534
-0.00510796
0.00431578
-0.128001
0.128793
-0.00299946
0.0014828
-0.0356585
0.0371752
-0.000454823
-0.00117296
0.00162778
-0.0801709
0.0773798
0.00279118
-0.0059647
0.00384588
-0.400349
0.402468
0.000292173
-0.00479655
-0.557459
0.561963
0.01021
-0.0161843
-0.68376
0.689734
0.0234814
-0.0302229
-0.79988
0.806621
0.0375143
-0.043992
-0.921264
0.927742
0.0509267
-0.0566581
-1.0588
1.06453
0.0626585
-0.0670112
-1.21398
1.21833
0.071038
-0.0735277
-1.3872
1.38969
0.0746366
-0.073591
-1.58072
1.57968
0.0708196
-0.0663156
-1.50855
1.50405
0.0608344
-0.0536581
-1.21589
1.20871
0.0464141
-0.0378055
-0.992186
0.983577
0.0289354
-0.0188023
-0.81326
0.803126
0.0092644
4.25206e-05
-0.6459
0.636593
-0.00684362
0.0118776
-0.463985
0.458951
-0.0136735
0.0129277
-0.277865
0.278611
-0.0109042
0.00787216
-0.12798
0.131012
-0.00511562
0.00239432
-0.0378649
0.0405862
-0.000713654
-0.00181318
0.00252683
-0.0785469
0.0760981
0.00244886
-0.00698375
0.006448
-0.408805
0.409341
-0.00344402
0.000287014
-0.569375
0.572532
0.00414883
-0.00957377
-0.696447
0.701872
0.015721
-0.0216757
-0.812745
0.8187
0.0280196
-0.0336721
-0.933801
0.939454
0.039678
-0.0448757
-1.07017
1.07536
0.0501118
-0.0543186
-1.22264
1.22685
0.0580552
-0.0604342
-1.392
1.39437
0.061596
-0.0607296
-1.57871
1.57785
0.0582116
-0.0537873
-1.49907
1.49465
0.0485093
-0.0416287
-1.20152
1.19464
0.0344683
-0.0257612
-0.974389
0.965682
0.0171738
-0.00750107
-0.792017
0.782345
-0.000956756
0.00869912
-0.625341
0.617598
-0.0137608
0.017053
-0.451453
0.448161
-0.0176709
0.0157001
-0.27552
0.277491
-0.0126661
0.00903892
-0.132251
0.135879
-0.00579821
0.00266788
-0.0424061
0.0455364
-0.000800918
-0.00296907
0.00376999
-0.0770746
0.0749895
0.00208506
-0.0067651
0.00671808
-0.414408
0.414455
-0.00510241
0.00254004
-0.578382
0.580944
0.0016099
-0.00619933
-0.707181
0.71177
0.0114589
-0.0166163
-0.823897
0.829054
0.022254
-0.0273329
-0.944786
0.949865
0.0329053
-0.0375791
-1.08034
1.08501
0.0424722
-0.046466
-1.23087
1.23486
0.0500167
-0.0523149
-1.39663
1.39893
0.0534478
-0.052967
-1.577
1.57652
0.0504611
-0.0462372
-1.4898
1.48558
0.041025
-0.0342847
-1.18752
1.18078
0.0276023
-0.0192907
-0.956782
0.948471
0.0114042
-0.00295664
-0.772416
0.763969
-0.00422975
0.010672
-0.608447
0.602004
-0.0146722
0.0171167
-0.442517
0.440073
-0.017169
0.0151487
-0.275705
0.277725
-0.0123048
0.00872004
-0.137675
0.141259
-0.00553466
0.00256803
-0.0474692
0.0504359
-0.000777716
-0.00421702
0.00499474
-0.075973
0.0743598
0.00161321
-0.0057711
0.00602491
-0.418413
0.418159
-0.00481063
0.00297265
-0.586128
0.587966
0.000807224
-0.0048759
-0.71636
0.720429
0.00979224
-0.0142015
-0.833819
0.838228
0.0191537
-0.0236973
-0.954941
0.959484
0.0290694
-0.0334382
-1.08977
1.09414
0.0379604
-0.0419018
-1.23876
1.2427
0.0457493
-0.0480111
-1.40132
1.40359
0.049266
-0.0487336
-1.57566
1.57513
0.046576
-0.0422299
-1.48109
1.47674
0.0373793
-0.0311625
-1.17387
1.16765
0.0248847
-0.0176085
-0.940307
0.933031
0.0106964
-0.00334277
-0.755319
0.747965
-0.00245445
0.00784962
-0.594352
0.588957
-0.0113331
0.0132607
-0.435413
0.433486
-0.013508
0.012164
-0.276552
0.277896
-0.00986263
0.00695556
-0.14275
0.145657
-0.00440813
0.00206778
-0.0520087
0.0543491
-0.000645556
-0.00535287
0.00599843
-0.0754068
0.0741554
0.00125143
-0.00456804
0.00489553
-0.421503
0.421175
-0.00381439
0.0021064
-0.592705
0.594413
0.0013706
-0.00489648
-0.72445
0.727976
0.00902749
-0.0132304
-0.842565
0.846768
0.0178
-0.0225061
-0.963869
0.968575
0.0272279
-0.0314967
-1.09866
1.10293
0.0362427
-0.0400284
-1.24659
1.25038
0.0434784
-0.0461748
-1.4058
1.40849
0.0475851
-0.047267
-1.57463
1.57431
0.045188
-0.0413548
-1.47253
1.4687
0.0368606
-0.0311449
-1.16116
1.15545
0.025559
-0.0191265
-0.925794
0.919362
0.0131769
-0.00707904
-0.740781
0.734683
0.00188747
0.00270538
-0.582612
0.578019
-0.00567351
0.0076109
-0.429162
0.427224
-0.00818698
0.00743877
-0.276553
0.277301
-0.00607933
0.0042548
-0.146242
0.148066
-0.00270635
0.00128963
-0.0552151
0.0566318
-0.000422611
-0.00618767
0.00661028
-0.0754
0.0743766
0.0010234
-0.00316189
0.00318575
-0.424293
0.424269
-0.00225464
0.000594067
-0.598649
0.60031
0.00256552
-0.0058843
-0.731784
0.735103
0.00976765
-0.0135268
-0.850739
0.854498
0.0182
-0.0221526
-0.972742
0.976694
0.0268916
-0.0310342
-1.10739
1.11153
0.0357216
-0.0397352
-1.25419
1.2582
0.0434784
-0.0459409
-1.41097
1.41343
0.0476283
-0.0476291
-1.57388
1.57389
0.0461094
-0.0425592
-1.46472
1.46117
0.038545
-0.0333765
-1.14986
1.1447
0.0284119
-0.0226554
-0.912852
0.907096
0.0175227
-0.0120678
-0.728415
0.72296
0.00748017
-0.00318856
-0.57257
0.568278
0.000110491
0.00182599
-0.423109
0.421172
-0.00271899
0.00271455
-0.275346
0.275351
-0.0023848
0.00167999
-0.1477
0.148405
-0.00107756
0.000565273
-0.0566449
0.0571572
-0.000205633
-0.00660226
0.0068079
-0.0757077
0.0750147
0.000692951
-0.00190347
0.00146396
-0.42731
0.427749
-0.000682387
-0.00120731
-0.603759
0.605648
0.00399247
-0.00714532
-0.738463
0.741616
0.0108145
-0.014671
-0.858106
0.861962
0.0187337
-0.0228602
-0.980875
0.985001
0.0275903
-0.0315539
-1.11613
1.12009
0.0363488
-0.0403191
-1.26204
1.26601
0.0440994
-0.047042
-1.41629
1.41923
0.0491468
-0.0493654
-1.5739
1.57412
0.0480505
-0.0452031
-1.45777
1.45492
0.0417704
-0.0370788
-1.13944
1.13475
0.0325291
-0.0275396
-0.901347
0.896357
0.0225985
-0.0178292
-0.717283
0.712514
0.0136539
-0.00954416
-0.563509
0.559399
0.00660437
-0.00415979
-0.417003
0.414558
0.00274972
-0.0018261
-0.272888
0.271965
0.00124784
-0.000722323
-0.147061
0.146535
0.000274638
2.06236e-05
-0.0564286
0.0561333
-7.71458e-05
-0.00658863
0.00666577
-0.0764618
0.0759298
0.000532013
-0.000850982
0.00046295
-0.430669
0.431057
0.00100976
-0.00279227
-0.609033
0.610816
0.00572099
-0.00873644
-0.744576
0.747592
0.0122306
-0.0156824
-0.865492
0.868944
0.0198721
-0.0237001
-0.989153
0.992981
0.0283938
-0.0327915
-1.12452
1.12892
0.0372253
-0.0415002
-1.27003
1.27431
0.0456561
-0.0486424
-1.42207
1.42506
0.0510582
-0.0520046
-1.57453
1.57548
0.0511071
-0.0488847
-1.45194
1.44972
0.0456995
-0.0415407
-1.1301
1.12594
0.0374972
-0.0328175
-0.891015
0.886335
0.0283909
-0.0238888
-0.707253
0.702751
0.0199409
-0.0158585
-0.554725
0.550643
0.0126903
-0.0099078
-0.41051
0.407727
0.00773228
-0.00588519
-0.268757
0.26691
0.00430148
-0.00269045
-0.144256
0.142645
0.00143224
-0.000473577
-0.0546682
0.0537096
5.98861e-05
-0.00623818
0.00617829
-0.0775005
0.0771589
0.000341577
0.00026637
-0.000951314
-0.434242
0.434927
0.00234167
-0.00445176
-0.613972
0.616082
0.00731693
-0.0101852
-0.750444
0.753312
0.0137619
-0.0170684
-0.872383
0.875689
0.0211109
-0.0250668
-0.997299
1.00125
0.0296653
-0.0340192
-1.13318
1.13754
0.0386484
-0.0429163
-1.27851
1.28277
0.0472092
-0.0508859
-1.42831
1.43199
0.0536905
-0.054894
-1.57634
1.57755
0.0546639
-0.0527682
-1.44738
1.44548
0.0501569
-0.0465629
-1.12172
1.11813
0.0426423
-0.0382608
-0.881392
0.877011
0.034086
-0.0296295
-0.697852
0.693396
0.0258428
-0.0216693
-0.546269
0.542095
0.0183153
-0.0149267
-0.403411
0.400023
0.0121854
-0.00943902
-0.262934
0.260187
0.00687871
-0.00436808
-0.139455
0.136944
0.00243293
-0.000919217
-0.0516903
0.0501766
0.0001825
-0.00565327
0.00547077
-0.0787768
0.0785688
0.000208052
0.00120738
-0.00203071
-0.43813