/*--------------------------------*- C++ -*----------------------------------*\
  =========                 |
  \\      /  F ield         | OpenFOAM: The Open Source CFD Toolbox
   \\    /   O peration     | Website:  https://openfoam.org
    \\  /    A nd           | Version:  9
     \\/     M anipulation  |
\*---------------------------------------------------------------------------*/
FoamFile
{
    format      ascii;
    class       volScalarField;
    location    "74";
    object      p;
}
// * * * * * * * * * * * * * * * * * * * * * * * * * * * * * * * * * * * * * //

dimensions      [0 2 -2 0 0 0 0];

internalField   nonuniform List<scalar> 
8800
(
0.834373
0.786588
0.747903
0.718913
0.698057
0.683239
0.672661
0.665208
0.660425
0.65842
0.659743
0.66398
0.670659
0.680001
0.692799
0.710545
0.735331
0.769277
0.811831
0.870534
0.665614
0.673293
0.680775
0.684087
0.68259
0.677523
0.671052
0.664998
0.660308
0.65751
0.657288
0.659848
0.664379
0.670355
0.677146
0.683441
0.687092
0.686361
0.680949
0.672265
0.644004
0.650165
0.654296
0.657248
0.659307
0.659925
0.658839
0.656764
0.65479
0.653939
0.654963
0.657397
0.660235
0.662444
0.663072
0.661887
0.659557
0.656172
0.651616
0.647856
0.638172
0.640824
0.643581
0.645992
0.647637
0.648815
0.649579
0.649729
0.64948
0.649493
0.650315
0.651542
0.652426
0.652523
0.651937
0.650863
0.64906
0.646499
0.644101
0.642598
0.632761
0.634187
0.635972
0.638013
0.639809
0.641169
0.642184
0.643019
0.643687
0.644323
0.645053
0.645614
0.645764
0.645515
0.644845
0.643617
0.641938
0.640101
0.6388
0.637968
0.627646
0.628567
0.629815
0.631391
0.633039
0.634584
0.635899
0.63701
0.638036
0.639012
0.639793
0.640199
0.640216
0.639822
0.638975
0.6378
0.636493
0.635247
0.63443
0.633879
0.622691
0.623361
0.62433
0.625644
0.62707
0.628552
0.630026
0.631398
0.632668
0.633873
0.634802
0.635262
0.635249
0.634795
0.63403
0.633114
0.632126
0.631219
0.630641
0.630235
0.617847
0.618364
0.619155
0.620299
0.621596
0.622997
0.624483
0.626013
0.627523
0.628973
0.630107
0.630687
0.630748
0.63043
0.629878
0.629192
0.628449
0.627786
0.627359
0.627041
0.613042
0.613453
0.614117
0.615139
0.616367
0.617726
0.619217
0.620839
0.622556
0.624286
0.625683
0.626472
0.62674
0.626652
0.626332
0.625864
0.625332
0.624864
0.62455
0.62429
0.608188
0.608522
0.609098
0.610042
0.611225
0.612575
0.614108
0.615837
0.617755
0.619792
0.621527
0.622631
0.623193
0.623372
0.623292
0.623057
0.622727
0.622423
0.622193
0.621975
0.603193
0.60347
0.603985
0.604886
0.606055
0.607434
0.609048
0.610929
0.61309
0.615483
0.617645
0.619152
0.620066
0.620551
0.620738
0.620741
0.620612
0.620452
0.620291
0.620101
0.597967
0.598199
0.598675
0.599563
0.600758
0.602211
0.603949
0.606036
0.608508
0.611343
0.614027
0.616017
0.617344
0.618182
0.618668
0.618913
0.618994
0.618971
0.618866
0.618696
0.592413
0.59261
0.593068
0.593971
0.595234
0.596805
0.598724
0.601086
0.603952
0.607338
0.610653
0.613221
0.615032
0.616274
0.617098
0.617613
0.617916
0.61802
0.617963
0.617806
0.586427
0.586596
0.587052
0.588001
0.589372
0.591113
0.593281
0.595996
0.599361
0.603427
0.607506
0.610763
0.613147
0.614857
0.616068
0.616906
0.617432
0.617661
0.617644
0.617495
0.579886
0.58003
0.5805
0.581524
0.583051
0.585022
0.587514
0.590682
0.59467
0.599567
0.604571
0.608651
0.611715
0.613977
0.615631
0.616822
0.617608
0.617966
0.617988
0.617841
0.572646
0.572767
0.573264
0.574393
0.576127
0.578397
0.581304
0.585044
0.589805
0.595718
0.601836
0.606898
0.610765
0.61368
0.615858
0.617458
0.618533
0.619026
0.619082
0.618934
0.564516
0.564626
0.565161
0.566428
0.568425
0.571075
0.574511
0.578968
0.584684
0.591835
0.59929
0.605521
0.610335
0.614016
0.616825
0.618905
0.620305
0.620939
0.621026
0.620873
0.555263
0.55536
0.555958
0.557389
0.559722
0.562863
0.566968
0.572319
0.579215
0.587871
0.596931
0.604544
0.610477
0.615059
0.618614
0.621255
0.623022
0.623805
0.623919
0.623757
0.544563
0.544642
0.545327
0.546986
0.549759
0.553527
0.558472
0.564944
0.573298
0.583784
0.594758
0.603999
0.611246
0.616891
0.621293
0.624604
0.62678
0.627716
0.627852
0.627677
0.532031
0.532096
0.532882
0.534853
0.538185
0.542756
0.548776
0.556666
0.566831
0.579538
0.592784
0.603927
0.612692
0.619572
0.624968
0.629042
0.631661
0.632745
0.632896
0.632705
0.517095
0.517149
0.518079
0.520467
0.52454
0.530166
0.537582
0.547286
0.559714
0.575112
0.591031
0.604374
0.614869
0.623159
0.629702
0.634627
0.637708
0.638926
0.63908
0.638869
0.498963
0.499005
0.500151
0.503128
0.508216
0.51527
0.524545
0.536605
0.551871
0.570519
0.589547
0.605388
0.617838
0.627712
0.635508
0.64138
0.644912
0.64623
0.646369
0.646138
0.476445
0.476485
0.477984
0.48185
0.488402
0.497463
0.509288
0.524454
0.543291
0.565826
0.588419
0.607037
0.621636
0.633256
0.642409
0.649255
0.65318
0.654539
0.654643
0.654393
0.44775
0.447812
0.449908
0.455211
0.46405
0.47606
0.491482
0.510775
0.534067
0.561183
0.587779
0.609407
0.626296
0.639756
0.650364
0.658123
0.662313
0.663627
0.663674
0.663408
0.409766
0.409934
0.413266
0.421222
0.433918
0.450457
0.471009
0.495721
0.524461
0.556844
0.587802
0.612593
0.631852
0.647181
0.65925
0.66775
0.671997
0.673155
0.673128
0.672853
0.356538
0.357556
0.364195
0.377626
0.397038
0.420588
0.448223
0.479785
0.514939
0.553154
0.588685
0.61668
0.6383
0.655467
0.668839
0.677779
0.681806
0.68271
0.682605
0.682334
0.278939
0.286443
0.301825
0.325528
0.354943
0.387884
0.424173
0.463609
0.505851
0.550348
0.59073
0.622107
0.646249
0.665357
0.679903
0.689015
0.692642
0.693282
0.693129
0.692897
0.195573
0.213301
0.238221
0.27281
0.312634
0.355083
0.400051
0.447497
0.497147
0.548496
0.594485
0.629871
0.656931
0.678258
0.693993
0.702732
0.705542
0.705886
0.705756
0.705596
0.126029
0.146929
0.179711
0.223537
0.272524
0.323923
0.377301
0.43259
0.489475
0.547428
0.598682
0.637713
0.667285
0.690241
0.706308
0.714282
0.716547
0.716829
0.716751
0.716624
0.0690612
0.0916423
0.130033
0.180388
0.236607
0.295528
0.356339
0.418814
0.482483
0.546689
0.602877
0.64525
0.677004
0.701161
0.717375
0.724904
0.726908
0.727183
0.727145
0.727046
0.0216679
0.0454432
0.087677
0.143204
0.205231
0.270361
0.337546
0.406405
0.476281
0.546342
0.607205
0.652728
0.686522
0.71186
0.728334
0.735573
0.737428
0.737733
0.737739
0.73766
-0.0184218
0.00600175
0.0511406
0.110755
0.177668
0.248083
0.320813
0.395358
0.470913
0.546457
0.611791
0.660362
0.696188
0.722704
0.739521
0.746743
0.748638
0.748901
0.748927
0.748868
-0.053267
-0.0284368
0.0189792
0.081971
0.153019
0.22804
0.305698
0.385394
0.4662
0.546927
0.61658
0.668171
0.706032
0.733768
0.751151
0.75865
0.760524
0.760795
0.760827
0.760785
-0.0843924
-0.0592198
-0.00995268
0.0559207
0.130546
0.209615
0.291709
0.376125
0.461842
0.547529
0.621395
0.675982
0.715908
0.744985
0.763096
0.770875
0.772858
0.77311
0.773134
0.77311
-0.1128
-0.0873305
-0.0364876
0.0318813
0.109653
0.192325
0.278424
0.367195
0.457547
0.548011
0.626023
0.6836
0.725623
0.756038
0.7749
0.783031
0.785134
0.78539
0.785407
0.785389
-0.139321
-0.113516
-0.0612847
0.00929166
0.0898793
0.17578
0.265521
0.358321
0.453052
0.548148
0.630276
0.690849
0.73493
0.766696
0.78626
0.794737
0.796981
0.79724
0.79722
0.797203
-0.164356
-0.13822
-0.0846614
-0.012234
0.070888
0.159696
0.252749
0.349282
0.448162
0.547776
0.634007
0.69758
0.743704
0.776743
0.796941
0.805714
0.808045
0.808281
0.808228
0.808202
-0.188386
-0.161832
-0.107231
-0.0329384
0.0524332
0.143859
0.239934
0.339923
0.442728
0.546741
0.6371
0.703729
0.751877
0.786092
0.806793
0.815733
0.818102
0.818314
0.818225
0.818186
-0.211551
-0.184542
-0.129007
-0.0530236
0.0343554
0.128136
0.226958
0.330135
0.436636
0.544932
0.639475
0.709263
0.759464
0.794745
0.815762
0.824764
0.82709
0.827261
0.82714
0.827087
-0.234012
-0.206621
-0.150062
-0.0726149
0.0165676
0.112459
0.213754
0.319847
0.42981
0.542264
0.641051
0.714173
0.766524
0.802793
0.823955
0.832807
0.83505
0.835165
0.835013
0.834947
-0.255909
-0.228049
-0.170528
-0.0917703
-0.000984736
0.0967897
0.200302
0.309041
0.422215
0.538659
0.641752
0.718447
0.773174
0.810434
0.83152
0.840008
0.842035
0.842087
0.84192
0.841843
-0.277323
-0.248887
-0.190493
-0.110513
-0.0182971
0.0811295
0.186617
0.297728
0.413836
0.534058
0.6415
0.722073
0.779518
0.817877
0.838693
0.846523
0.848182
0.848137
0.847955
0.847873
-0.298122
-0.269139
-0.209902
-0.128839
-0.0353624
0.0655198
0.172731
0.285949
0.4047
0.52845
0.640204
0.72499
0.785618
0.825397
0.845842
0.852624
0.853612
0.853394
0.853218
0.853145
-0.31829
-0.288785
-0.228757
-0.146717
-0.0521437
0.0499995
0.158715
0.273759
0.394859
0.521831
0.637789
0.727079
0.79147
0.833236
0.853482
0.858861
0.858626
0.857982
0.857846
0.857842
-0.337906
-0.307803
-0.247054
-0.164131
-0.0685925
0.0346362
0.144639
0.261245
0.384381
0.514235
0.634175
0.728179
0.796945
0.841484
0.862201
0.866256
0.864084
0.862302
0.862174
0.862526
-0.356821
-0.326186
-0.264748
-0.181038
-0.0846621
0.0195018
0.130584
0.248502
0.373364
0.505732
0.629314
0.728076
0.801785
0.849935
0.872302
0.8761
0.872114
0.868037
0.866629
0.866885
-0.375126
-0.343933
-0.281862
-0.197475
-0.100389
0.00455178
0.116497
0.235476
0.361746
0.496253
0.623069
0.726494
0.805717
0.858202
0.883486
0.889099
0.885135
0.877677
0.870422
0.857386
-0.392761
-0.361034
-0.298514
-0.213642
-0.11605
-0.0105309
0.101981
0.221713
0.349028
0.485213
0.614859
0.722746
0.808328
0.865829
0.894508
0.903824
0.900217
0.885983
0.864507
0.855037
-0.409562
-0.377657
-0.314522
-0.22935
-0.13129
-0.025411
0.0872488
0.20752
0.335487
0.472825
0.604661
0.716231
0.808578
0.871523
0.901354
0.910914
0.908315
0.881944
0.815077
0.785423
-0.42488
-0.395089
-0.329591
-0.244126
-0.145303
-0.039585
0.0726218
0.193123
0.321337
0.459194
0.592355
0.706519
0.804762
0.874364
0.898386
0.9029
0.885722
0.828089
0.758537
0.716099
-0.479182
-0.410426
-0.343179
-0.25911
-0.159785
-0.0545683
0.0580225
0.178226
0.30618
0.443818
0.577254
0.692771
0.792687
0.869554
0.868381
0.864956
0.807527
0.732851
0.654703
0.611232
-0.440732
-0.4248
-0.363423
-0.278245
-0.181208
-0.0760089
0.0355618
0.155186
0.282287
0.418787
0.550775
0.665411
0.758978
0.842038
0.821521
0.699388
0.588933
0.512139
0.436799
0.464748
-0.470653
-0.441694
-0.379472
-0.295145
-0.198163
-0.093079
0.0187935
0.137813
0.263904
0.398717
0.528097
0.638591
0.722215
0.765989
0.711803
0.554763
0.421916
0.327162
0.226764
0.274337
-0.493648
-0.461779
-0.39849
-0.314048
-0.216951
-0.11198
-0.00017973
0.118019
0.242736
0.375195
0.500908
0.605066
0.679412
0.688032
0.574732
0.396348
0.239477
0.117531
-0.0153458
0.0161423
-0.516056
-0.482739
-0.418359
-0.333033
-0.235875
-0.13107
-0.0198078
0.0974234
0.220549
0.350224
0.471215
0.567083
0.625429
0.602209
0.436993
0.236128
0.0427236
-0.127378
-0.316948
-0.337314
-0.537847
-0.504138
-0.438935
-0.352878
-0.255614
-0.151059
-0.040475
0.0756469
0.196893
0.32333
0.438783
0.526085
0.564373
0.503338
0.305585
0.0911507
-0.128497
-0.319238
-0.561694
-0.856401
-0.559911
-0.526233
-0.460555
-0.374068
-0.276662
-0.172317
-0.0623517
0.052606
0.171833
0.294709
0.404171
0.48285
0.498655
0.385583
0.190955
-0.0226164
-0.22933
-0.403143
-0.474044
-0.551883
-0.583185
-0.549489
-0.483564
-0.396913
-0.299508
-0.195475
-0.0862338
0.0273686
0.144229
0.262958
0.365943
0.433167
0.423114
0.27612
0.0887446
-0.105774
-0.271367
-0.366007
-0.390482
-0.406235
-0.607974
-0.574194
-0.50813
-0.421487
-0.324277
-0.220741
-0.112478
-0.000552332
0.113493
0.227377
0.323398
0.375608
0.347414
0.174208
-0.0041108
-0.173418
-0.302529
-0.342511
-0.355277
-0.356568
-0.634474
-0.600517
-0.534317
-0.447782
-0.350919
-0.24812
-0.141103
-0.0312081
0.0795606
0.187987
0.276058
0.313296
0.263934
0.0800479
-0.0891785
-0.24081
-0.31865
-0.335791
-0.3372
-0.33702
-0.662743
-0.628518
-0.562154
-0.475801
-0.379452
-0.277601
-0.172115
-0.0646135
0.0424437
0.144871
0.224044
0.249065
0.162659
-0.00599722
-0.166692
-0.291673
-0.329071
-0.327436
-0.326553
-0.325981
-0.692497
-0.658034
-0.59154
-0.505459
-0.409794
-0.309134
-0.205485
-0.100742
0.00218441
0.0981426
0.168299
0.175741
0.0709512
-0.0856666
-0.228088
-0.306187
-0.316494
-0.319108
-0.319775
-0.319506
-0.723189
-0.688593
-0.62222
-0.536535
-0.44176
-0.342565
-0.241062
-0.13946
-0.0410255
0.0481765
0.109338
0.101423
-0.0112285
-0.153085
-0.273243
-0.305414
-0.314037
-0.31545
-0.315183
-0.314878
-0.754361
-0.719671
-0.653738
-0.568641
-0.475012
-0.377577
-0.278569
-0.180478
-0.0868922
-0.00430835
0.0462805
0.0310301
-0.0863672
-0.207645
-0.303556
-0.322071
-0.312947
-0.311776
-0.311686
-0.311448
-0.785116
-0.750575
-0.685262
-0.601172
-0.509014
-0.413705
-0.31756
-0.223314
-0.134936
-0.0586517
-0.0180198
-0.0332215
-0.151808
-0.248503
-0.30536
-0.314682
-0.311921
-0.310633
-0.310077
-0.309848
-0.813942
-0.780131
-0.715821
-0.63322
-0.543014
-0.450255
-0.357386
-0.267288
-0.184342
-0.114248
-0.0772379
-0.103521
-0.204045
-0.285773
-0.29027
-0.308752
-0.312547
-0.310918
-0.310303
-0.309868
-0.839228
-0.806468
-0.744319
-0.663646
-0.575991
-0.486306
-0.397191
-0.311548
-0.233979
-0.170198
-0.133224
-0.170779
-0.248197
-0.305012
-0.324156
-0.318483
-0.31735
-0.316641
-0.316026
-0.31554
-0.858868
-0.827849
-0.768542
-0.691065
-0.606671
-0.520748
-0.435898
-0.355076
-0.28272
-0.225178
-0.190505
-0.224607
-0.281804
-0.338589
-0.361984
-0.338335
-0.326248
-0.323821
-0.322621
-0.322172
-0.870672
-0.842357
-0.786873
-0.713534
-0.633586
-0.552277
-0.472344
-0.396673
-0.329505
-0.277542
-0.24541
-0.267768
-0.295688
-0.342854
-0.33331
-0.325129
-0.32232
-0.321351
-0.321205
-0.32128
-0.872069
-0.847774
-0.797254
-0.729337
-0.655065
-0.579488
-0.505215
-0.435104
-0.373191
-0.325945
-0.290583
-0.301524
-0.291763
-0.296292
-0.301128
-0.311191
-0.315999
-0.317595
-0.318304
-0.318344
-0.860804
-0.841266
-0.797542
-0.736915
-0.669677
-0.600942
-0.53319
-0.469105
-0.412582
-0.369385
-0.328133
-0.327249
-0.29963
-0.279472
-0.300048
-0.314551
-0.321552
-0.324297
-0.3251
-0.325259
-0.835073
-0.820442
-0.785993
-0.735035
-0.67644
-0.615676
-0.555136
-0.497375
-0.446364
-0.407254
-0.362068
-0.354642
-0.346119
-0.340053
-0.340634
-0.34073
-0.340397
-0.340163
-0.339907
-0.33996
-0.797463
-0.788045
-0.763485
-0.723865
-0.675364
-0.623435
-0.570413
-0.518902
-0.472976
-0.437962
-0.408059
-0.390342
-0.387807
-0.426768
-0.424218
-0.382854
-0.360552
-0.351934
-0.348818
-0.347898
-0.754641
-0.749277
-0.734828
-0.706229
-0.668375
-0.625014
-0.579164
-0.533183
-0.490915
-0.458273
-0.429971
-0.401803
-0.379291
-0.390885
-0.391425
-0.367632
-0.339188
-0.324633
-0.320694
-0.319464
-0.716238
-0.712974
-0.706089
-0.687477
-0.658365
-0.622287
-0.582481
-0.540507
-0.49956
-0.464497
-0.437642
-0.386271
-0.312532
-0.228956
-0.137579
-0.124552
-0.181743
-0.230792
-0.254587
-0.258443
-0.688623
-0.686582
-0.683057
-0.671804
-0.649169
-0.618299
-0.582324
-0.542419
-0.499958
-0.459595
-0.429606
-0.376506
-0.328916
-0.295019
-0.384931
-0.576341
-0.705525
-0.703648
-0.630001
-0.615825
-0.6678
-0.667045
-0.665881
-0.660307
-0.64338
-0.615795
-0.580972
-0.540375
-0.495218
-0.447017
-0.409585
-0.390561
-0.456739
-0.680588
-0.970017
-1.11022
-1.14759
-1.08892
-0.982327
-0.930978
-0.655687
-0.655426
-0.654828
-0.652275
-0.640531
-0.614714
-0.57925
-0.536659
-0.487617
-0.430612
-0.385182
-0.350403
-0.392194
-0.493788
-0.664447
-0.798851
-0.770709
-0.628859
-0.482793
-0.41263
-0.647404
-0.647223
-0.646661
-0.645743
-0.638792
-0.61519
-0.57843
-0.532693
-0.477822
-0.413144
-0.345736
-0.275178
-0.168631
-0.0173274
0.172098
0.348548
0.547511
0.704646
0.793029
0.827043
-0.642366
-0.642316
-0.642153
-0.642329
-0.637959
-0.617637
-0.579496
-0.529562
-0.469292
-0.394983
-0.303773
-0.212927
-0.0135407
0.319916
0.704352
1.08837
1.39848
1.57636
1.65192
1.67268
-0.638363
-0.638422
-0.638474
-0.638355
-0.637287
-0.621569
-0.583011
-0.529018
-0.463188
-0.379935
-0.279043
-0.174178
0.0336698
0.405463
0.822523
1.20533
1.50916
1.68001
1.74331
1.75643
-0.635259
-0.635338
-0.635231
-0.634424
-0.633822
-0.626235
-0.589178
-0.532234
-0.461687
-0.375544
-0.273174
-0.166685
-0.00643835
0.330236
0.675509
0.988476
1.2266
1.35438
1.39834
1.40609
-0.633868
-0.634772
-0.637083
-0.640951
-0.645197
-0.637036
-0.596941
-0.537498
-0.467162
-0.381174
-0.283591
-0.18373
-0.0598493
0.200451
0.460867
0.674729
0.828691
0.906068
0.933156
0.938234
-0.631405
-0.633288
-0.638664
-0.651519
-0.666024
-0.650235
-0.601049
-0.54559
-0.479956
-0.395185
-0.303784
-0.214706
-0.119492
0.063609
0.24164
0.375907
0.464606
0.508554
0.527861
0.534496
-0.648881
-0.649759
-0.64727
-0.629615
-0.603358
-0.588551
-0.583074
-0.55753
-0.497599
-0.413705
-0.330516
-0.253067
-0.179292
-0.0450385
0.0833415
0.174701
0.234005
0.265308
0.281795
0.287548
-0.695172
-0.694007
-0.680382
-0.625555
-0.550757
-0.531957
-0.582407
-0.581501
-0.521481
-0.435551
-0.355398
-0.288979
-0.232233
-0.128694
-0.0269081
0.0506549
0.105776
0.137642
0.152348
0.156106
-0.762027
-0.760797
-0.773627
-0.786848
-0.784106
-0.755592
-0.736367
-0.657041
-0.556309
-0.456811
-0.376638
-0.320402
-0.277173
-0.188451
-0.099644
-0.0299107
0.0237537
0.0558031
0.068568
0.0703701
-0.916243
-0.939005
-0.999647
-1.06851
-1.09262
-1.05332
-0.941912
-0.755206
-0.596536
-0.472815
-0.388456
-0.336722
-0.298964
-0.224503
-0.148533
-0.089618
-0.0434658
-0.0164401
-0.00652264
-0.00608287
-1.04787
-1.0767
-1.1313
-1.18075
-1.20023
-1.15832
-1.01891
-0.794878
-0.607355
-0.471077
-0.385641
-0.337281
-0.300473
-0.240659
-0.179904
-0.130838
-0.094137
-0.072395
-0.0641029
-0.0640607
-0.996432
-1.01901
-1.05905
-1.09729
-1.11287
-1.07274
-0.926828
-0.728286
-0.563156
-0.441037
-0.364565
-0.319526
-0.287093
-0.243321
-0.197877
-0.160097
-0.132158
-0.115957
-0.110617
-0.111517
-0.743342
-0.763912
-0.801928
-0.845675
-0.869661
-0.837302
-0.721339
-0.586923
-0.471015
-0.384223
-0.325825
-0.289365
-0.264429
-0.235215
-0.204163
-0.178204
-0.158664
-0.147974
-0.144904
-0.146321
-0.379856
-0.393287
-0.420669
-0.457018
-0.489142
-0.491983
-0.460031
-0.410235
-0.358945
-0.312769
-0.277405
-0.253262
-0.237731
-0.221796
-0.204175
-0.190598
-0.18088
-0.176543
-0.175757
-0.177148
-0.0692648
-0.0764561
-0.0947979
-0.126443
-0.167457
-0.207231
-0.234046
-0.247567
-0.249058
-0.2387
-0.225049
-0.213793
-0.208534
-0.203256
-0.199291
-0.197881
-0.199223
-0.202319
-0.203798
-0.20454
0.106812
0.102767
0.0897966
0.0625166
0.0186709
-0.0363892
-0.0895594
-0.131777
-0.159607
-0.173377
-0.175148
-0.171991
-0.171465
-0.175948
-0.184501
-0.194581
-0.204753
-0.212248
-0.214755
-0.215042
0.166336
0.16368
0.153964
0.13173
0.0936121
0.0428057
-0.0113128
-0.0607486
-0.0987793
-0.123229
-0.132777
-0.132498
-0.133013
-0.146641
-0.163923
-0.179614
-0.192585
-0.200419
-0.202582
-0.202781
0.163833
0.161964
0.154892
0.138393
0.109615
0.070116
0.0250825
-0.0199555
-0.0589861
-0.0882632
-0.103288
-0.105979
-0.107439
-0.124589
-0.142839
-0.157509
-0.168104
-0.173166
-0.174548
-0.174928
0.137914
0.136689
0.131827
0.120324
0.0999737
0.0711782
0.0362079
-0.000942626
-0.0358848
-0.0660712
-0.0871373
-0.0995913
-0.107278
-0.119287
-0.129377
-0.136563
-0.141021
-0.142622
-0.143281
-0.143844
0.106843
0.106107
0.10295
0.0952547
0.0813252
0.0610131
0.0351402
0.00595742
-0.0239985
-0.0532677
-0.0807521
-0.106006
-0.122966
-0.122825
-0.120211
-0.119823
-0.118577
-0.117727
-0.117802
-0.11835
0.0770298
0.0767315
0.0748259
0.0699251
0.0607371
0.0468695
0.0284807
0.00686132
-0.0170787
-0.0435859
-0.0739994
-0.108856
-0.128343
-0.119439
-0.108889
-0.102479
-0.100294
-0.0993422
-0.0992813
-0.0996846
0.0505711
0.0504331
0.0494327
0.0465606
0.0408748
0.0320081
0.0198658
0.00515321
-0.0120806
-0.0328075
-0.0590206
-0.0888385
-0.101313
-0.0924663
-0.0843033
-0.0820777
-0.0819342
-0.0823588
-0.0822859
-0.0823305
0.0269058
0.0269538
0.0265413
0.0251782
0.0222789
0.0175695
0.0110034
0.00293528
-0.00674837
-0.0188401
-0.034765
-0.0514918
-0.0555271
-0.0503182
-0.0488475
-0.0513263
-0.0547066
-0.0566748
-0.056609
-0.0562958
0.00480157
0.00489505
0.00494445
0.00514757
0.00505652
0.00445012
0.0032991
0.00176024
-0.000117376
-0.00220526
-0.00488788
-0.00820683
-0.00977716
-0.0110079
-0.0123736
-0.0133751
-0.0144642
-0.0147623
-0.0142933
-0.0135712
-0.0933168
0.0716481
0.263683
0.431208
0.564279
0.668085
0.753345
0.826015
0.859445
0.836271
0.203609
0.322695
0.45059
0.560774
0.653214
0.729334
0.790892
0.83467
0.856588
0.86885
0.418525
0.500027
0.587382
0.664292
0.730257
0.785396
0.829277
0.861401
0.884749
0.902857
0.576773
0.635186
0.695541
0.751752
0.80049
0.84191
0.875989
0.903243
0.925812
0.944187
0.700416
0.742834
0.788177
0.831317
0.869479
0.902837
0.931437
0.955294
0.975539
0.993419
0.803613
0.836083
0.873774
0.90891
0.941199
0.970181
0.995537
1.01688
1.03465
1.05201
0.895464
0.923922
0.957613
0.989508
1.01925
1.04626
1.06988
1.08951
1.10495
1.12204
0.983632
1.01269
1.04653
1.07843
1.10791
1.13439
1.15718
1.17561
1.18894
1.20597
1.07869
1.11181
1.14835
1.18185
1.21182
1.23794
1.25984
1.27708
1.28892
1.30632
1.19354
1.23131
1.26989
1.30409
1.33339
1.35809
1.37843
1.3943
1.40575
1.42381
1.33839
1.3769
1.413
1.44366
1.46931
1.49138
1.51041
1.52593
1.53834
1.55633
1.5134
1.54501
1.57117
1.5936
1.61355
1.63226
1.64996
1.66643
1.68177
1.69984
1.70198
1.71918
1.7342
1.75042
1.76632
1.78084
1.79404
1.80796
1.82549
1.84565
1.88369
1.89322
1.90475
1.91556
1.92484
1.93441
1.94519
1.95655
1.96791
1.98326
2.0909
2.09456
2.07962
2.06481
2.05853
2.0642
2.08267
2.11298
2.14516
2.17181
2.39723
2.26236
2.18572
2.14333
2.1259
2.12987
2.15726
2.21368
2.31629
2.54066
0.724969
0.722842
0.71836
0.709739
0.697522
0.685402
0.675187
0.667312
0.661723
0.658508
0.658201
0.660984
0.666123
0.673371
0.682775
0.694327
0.706986
0.718026
0.724141
0.727197
0.64941
0.655258
0.661594
0.666091
0.668569
0.668254
0.665531
0.661743
0.658263
0.656044
0.655946
0.658191
0.661891
0.666206
0.670032
0.671928
0.671001
0.667527
0.662367
0.655746
0.640964
0.643261
0.646668
0.649669
0.651753
0.653261
0.654032
0.653739
0.652746
0.651908
0.652137
0.653616
0.655471
0.656806
0.657007
0.656132
0.654594
0.652266
0.649009
0.646091
0.635423
0.636509
0.638346
0.640731
0.642764
0.644205
0.645244
0.646023
0.646461
0.646734
0.647287
0.648152
0.648794
0.648894
0.648506
0.647676
0.64622
0.644146
0.642067
0.640686
0.63018
0.630842
0.631954
0.633667
0.63546
0.637107
0.638424
0.639471
0.640396
0.641245
0.642045
0.642664
0.642909
0.642782
0.642244
0.641212
0.639801
0.63827
0.63696
0.636183
0.625153
0.625613
0.626402
0.627709
0.62921
0.630745
0.632235
0.633568
0.634754
0.635878
0.636876
0.637523
0.63773
0.637503
0.636842
0.63588
0.634776
0.633659
0.632754
0.632239
0.620261
0.620605
0.621219
0.622297
0.623607
0.625002
0.626469
0.627956
0.629387
0.630746
0.631955
0.63274
0.632992
0.632774
0.63222
0.631478
0.630654
0.629807
0.629146
0.62877
0.615448
0.615714
0.616211
0.617131
0.618318
0.619639
0.621068
0.622604
0.624211
0.625823
0.627287
0.628269
0.628662
0.628613
0.628275
0.627759
0.627145
0.626531
0.626053
0.625766
0.61063
0.610841
0.611255
0.612066
0.613175
0.614452
0.615876
0.617467
0.619216
0.62108
0.622849
0.624113
0.624763
0.624969
0.624873
0.624587
0.624187
0.62377
0.623434
0.62321
0.605717
0.605886
0.606242
0.606981
0.608047
0.609307
0.610765
0.612448
0.614366
0.616502
0.618636
0.62028
0.621273
0.621783
0.621954
0.62191
0.621731
0.621494
0.621276
0.621098
0.600618
0.600755
0.601069
0.601765
0.602818
0.604106
0.605638
0.607456
0.6096
0.612065
0.614646
0.616762
0.618166
0.61903
0.619506
0.619722
0.619764
0.619703
0.619586
0.619443
0.59524
0.59535
0.595637
0.596315
0.597389
0.598752
0.600402
0.602412
0.604848
0.60773
0.61086
0.613543
0.615435
0.616709
0.617531
0.618032
0.618311
0.618426
0.618398
0.618282
0.589485
0.589571
0.589842
0.590526
0.591659
0.593139
0.594962
0.597232
0.60004
0.603449
0.607249
0.610614
0.613084
0.614836
0.61605
0.616886
0.617429
0.617713
0.617765
0.617669
0.583239
0.583304
0.583568
0.584281
0.585509
0.587154
0.589215
0.591824
0.595106
0.599167
0.603785
0.607968
0.611127
0.613442
0.615111
0.616324
0.617156
0.617627
0.617755
0.617676
0.576368
0.576412
0.576677
0.577442
0.578806
0.580671
0.583043
0.586085
0.589965
0.594829
0.60044
0.605606
0.609582
0.612564
0.614767
0.616408
0.617578
0.618249
0.618451
0.618385
0.568716
0.568737
0.569004
0.569844
0.571388
0.573537
0.576307
0.579899
0.584523
0.590373
0.597186
0.60353
0.608473
0.61224
0.615082
0.61723
0.618783
0.619673
0.61995
0.619893
0.560049
0.560061
0.560345
0.561284
0.563062
0.565561
0.568841
0.573125
0.578674
0.585733
0.594
0.601746
0.607836
0.612526
0.616118
0.618881
0.620871
0.621999
0.62235
0.622299
0.550089
0.550071
0.550405
0.55149
0.55356
0.556521
0.560446
0.565598
0.572298
0.58084
0.590859
0.600269
0.607712
0.613491
0.617963
0.621439
0.623938
0.625324
0.625748
0.625698
0.538516
0.538474
0.538856
0.540135
0.542574
0.54613
0.550874
0.557122
0.565259
0.575621
0.587747
0.599124
0.608144
0.615196
0.620701
0.624996
0.628077
0.629737
0.630228
0.630175
0.524831
0.524761
0.525225
0.526758
0.529685
0.534011
0.539815
0.547468
0.557415
0.570015
0.58466
0.598342
0.60918
0.617692
0.624404
0.62964
0.63336
0.635298
0.635844
0.635781
0.508362
0.508263
0.508855
0.510743
0.514323
0.519681
0.526888
0.536372
0.54862
0.563977
0.581618
0.597965
0.610877
0.621043
0.629111
0.63541
0.639818
0.642018
0.642597
0.642518
0.488139
0.488015
0.488813
0.491221
0.495722
0.502514
0.511636
0.523559
0.538761
0.557508
0.578677
0.598054
0.61329
0.625297
0.634842
0.642316
0.647419
0.649834
0.650413
0.65031
0.462705
0.462566
0.463704
0.46692
0.47282
0.481711
0.493553
0.508793
0.527806
0.550689
0.57595
0.598708
0.616469
0.630465
0.641615
0.650316
0.656045
0.658584
0.659118
0.658983
0.429682
0.429567
0.431329
0.43595
0.444178
0.456356
0.47219
0.491983
0.515872
0.543718
0.573621
0.600048
0.620473
0.636556
0.649363
0.659273
0.665465
0.667986
0.668424
0.668254
0.38481
0.384868
0.388012
0.395568
0.408122
0.425665
0.447422
0.473355
0.503313
0.536939
0.571942
0.602211
0.625366
0.643544
0.658001
0.668961
0.675319
0.677631
0.677929
0.677728
0.320105
0.321367
0.329067
0.343185
0.363672
0.389759
0.419864
0.453622
0.490759
0.530813
0.57118
0.605321
0.63115
0.651351
0.667265
0.678913
0.685096
0.686962
0.687085
0.68687
0.243454
0.245312
0.260066
0.284345
0.315942
0.352097
0.391282
0.433335
0.478097
0.525139
0.571589
0.610356
0.639469
0.66211
0.679623
0.691807
0.697527
0.699002
0.69907
0.698936
0.164436
0.170824
0.192616
0.227322
0.269452
0.31539
0.363604
0.413982
0.466421
0.520506
0.573119
0.616536
0.648862
0.673873
0.693041
0.705125
0.709873
0.710813
0.710822
0.710752
0.0997411
0.10853
0.134946
0.176792
0.227168
0.281424
0.337763
0.395919
0.455662
0.516493
0.574946
0.622649
0.657827
0.684665
0.704615
0.716363
0.720651
0.721481
0.721526
0.721507
0.0471304
0.0565246
0.0865482
0.133704
0.190296
0.251248
0.31445
0.379463
0.445863
0.512993
0.57695
0.628676
0.666481
0.694978
0.715569
0.727147
0.731142
0.731899
0.731991
0.732021
0.00315887
0.012838
0.0453426
0.0965407
0.158233
0.224742
0.293762
0.364771
0.437163
0.510116
0.579275
0.634835
0.675143
0.705256
0.726609
0.738158
0.7419
0.742739
0.742877
0.742962
-0.0345507
-0.0247705
0.00958179
0.0640089
0.129928
0.20118
0.275279
0.351612
0.429451
0.507817
0.581922
0.641212
0.684009
0.715744
0.737877
0.749598
0.753464
0.754347
0.754525
0.754635
-0.0676991
-0.0579032
-0.0221439
0.035004
0.104472
0.179822
0.258427
0.339569
0.422426
0.50588
0.584741
0.647688
0.692969
0.726374
0.749453
0.761641
0.765678
0.766604
0.766761
0.766869
-0.0975988
-0.0877903
-0.0508876
0.00860762
0.0811234
0.160072
0.242698
0.328221
0.415741
0.504036
0.587511
0.654071
0.701847
0.736967
0.761088
0.773839
0.778093
0.77904
0.77916
0.779259
-0.125172
-0.115344
-0.077468
-0.0158918
0.059308
0.141452
0.227691
0.317224
0.409101
0.502019
0.590008
0.660167
0.710442
0.747285
0.772436
0.785717
0.790237
0.791201
0.791292
0.791361
-0.151014
-0.141138
-0.102369
-0.0390471
0.0385861
0.123597
0.213104
0.306313
0.402262
0.499613
0.592055
0.665811
0.718565
0.757073
0.783224
0.796997
0.801779
0.802743
0.80278
0.80281
-0.175623
-0.165652
-0.126015
-0.0611826
0.018658
0.106235
0.198703
0.295285
0.395053
0.49666
0.593501
0.670891
0.726137
0.766258
0.793295
0.807438
0.812365
0.813328
0.813327
0.813323
-0.199321
-0.189169
-0.148787
-0.0824963
-0.000686882
0.0891811
0.184333
0.284012
0.387339
0.493027
0.594231
0.67533
0.733113
0.774798
0.80259
0.816955
0.821931
0.822845
0.822807
0.822771
-0.222222
-0.211884
-0.170844
-0.103143
-0.0195959
0.0723352
0.1699
0.2724
0.379029
0.488606
0.594151
0.679085
0.739513
0.782742
0.811104
0.825526
0.830419
0.831273
0.83121
0.831148
-0.244534
-0.233948
-0.192201
-0.123234
-0.0381428
0.0556305
0.155355
0.260405
0.370078
0.483341
0.593174
0.682103
0.745378
0.790221
0.819025
0.833291
0.837954
0.83871
0.838589
0.838516
-0.266235
-0.255402
-0.212992
-0.142843
-0.0563566
0.0390503
0.140697
0.248033
0.360475
0.47718
0.59122
0.684328
0.750769
0.797403
0.826537
0.840379
0.844637
0.845224
0.845067
0.844976
-0.287385
-0.27629
-0.233179
-0.161978
-0.0742408
0.022602
0.125944
0.235312
0.350238
0.470111
0.588223
0.685689
0.755698
0.804459
0.833942
0.847057
0.850609
0.850918
0.850717
0.85062
-0.307876
-0.296574
-0.252764
-0.180608
-0.091769
0.00633649
0.111139
0.222289
0.339414
0.462162
0.584131
0.686089
0.760123
0.811538
0.841622
0.853772
0.856146
0.855893
0.855627
0.855565
-0.327834
-0.316225
-0.271755
-0.198731
-0.108926
-0.00972289
0.0963593
0.209028
0.32807
0.453387
0.578921
0.685405
0.763922
0.81867
0.849961
0.861251
0.861929
0.860479
0.859939
0.860004
-0.347113
-0.335222
-0.290136
-0.216319
-0.125645
-0.0255028
0.081672
0.195634
0.316301
0.443828
0.572605
0.683499
0.766891
0.825712
0.859146
0.870384
0.869375
0.865859
0.863994
0.863651
-0.365787
-0.353625
-0.307863
-0.233331
-0.141901
-0.0409428
0.0671525
0.182179
0.304203
0.433606
0.565221
0.68023
0.768757
0.832307
0.868854
0.88159
0.880416
0.874769
0.868728
0.861383
-0.383779
-0.371392
-0.325035
-0.249923
-0.157897
-0.0563036
0.0524838
0.168288
0.291365
0.422266
0.556302
0.675127
0.769141
0.838305
0.878733
0.894688
0.89577
0.889017
0.877404
0.87334
-0.401047
-0.388449
-0.341638
-0.266074
-0.17365
-0.071585
0.0376713
0.153935
0.277729
0.409669
0.545612
0.667744
0.767176
0.842897
0.886907
0.905922
0.908756
0.903839
0.865291
0.813888
-0.417324
-0.404011
-0.357527
-0.281716