/*--------------------------------*- C++ -*----------------------------------*\
  =========                 |
  \\      /  F ield         | OpenFOAM: The Open Source CFD Toolbox
   \\    /   O peration     | Website:  https://openfoam.org
    \\  /    A nd           | Version:  9
     \\/     M anipulation  |
\*---------------------------------------------------------------------------*/
FoamFile
{
    format      ascii;
    class       volVectorField;
    location    "74";
    object      U;
}
// * * * * * * * * * * * * * * * * * * * * * * * * * * * * * * * * * * * * * //

dimensions      [0 1 -1 0 0 0 0];

internalField   nonuniform List<vector> 
8800
(
(0.980135 -0.0915199 0)
(1.00234 -0.0587303 0)
(0.999586 -0.032128 0)
(0.999989 -0.0165198 0)
(1.0001 -0.00883778 0)
(1.00012 -0.0050913 0)
(1.00007 -0.00298669 0)
(1.00003 -0.00167587 0)
(0.999997 -0.00077424 0)
(1.00007 -7.49349e-05 0)
(0.999971 0.00063531 0)
(0.999984 0.00139409 0)
(1.00003 0.00241416 0)
(1.00006 0.00400972 0)
(1.00004 0.00675342 0)
(1.00001 0.0120539 0)
(0.999817 0.0230954 0)
(0.999037 0.0431547 0)
(1.00724 0.0790244 0)
(0.775027 0.0478395 0)
(0.359003 -0.0147477 0)
(1.04651 -0.0724745 0)
(1.08848 -0.0660099 0)
(1.04945 -0.0508999 0)
(1.02557 -0.0376744 0)
(1.01278 -0.0258638 0)
(1.00661 -0.0166624 0)
(1.00365 -0.0101674 0)
(1.00219 -0.00553168 0)
(1.00151 -0.00193297 0)
(1.00137 0.00128098 0)
(1.00171 0.00459393 0)
(1.0027 0.00848116 0)
(1.00476 0.0137783 0)
(1.00898 0.0214469 0)
(1.01795 0.0319325 0)
(1.0358 0.0446989 0)
(1.06743 0.058136 0)
(1.09468 0.0699463 0)
(0.845603 0.0555093 0)
(0.217829 -0.00137917 0)
(1.07571 -0.0506247 0)
(1.09944 -0.0489014 0)
(1.06442 -0.0399774 0)
(1.03995 -0.0325089 0)
(1.02386 -0.0252839 0)
(1.01406 -0.0180521 0)
(1.00854 -0.0114191 0)
(1.00566 -0.0056519 0)
(1.00447 -0.000353371 0)
(1.00476 0.00476051 0)
(1.0066 0.0100492 0)
(1.01057 0.0160023 0)
(1.01789 0.0227359 0)
(1.03047 0.0298271 0)
(1.05046 0.0369024 0)
(1.08003 0.0446681 0)
(1.10563 0.0519794 0)
(0.9432 0.0410284 0)
(0.217135 0.00140725 0)
(0.176714 -0.000627301 0)
(1.0195 -0.035428 0)
(1.10577 -0.0413548 0)
(1.07804 -0.0363257 0)
(1.05253 -0.0302661 0)
(1.03531 -0.0243725 0)
(1.02343 -0.0185588 0)
(1.01559 -0.0125425 0)
(1.01096 -0.00643 0)
(1.0089 -0.000180237 0)
(1.0094 0.0059812 0)
(1.01246 0.0118945 0)
(1.01846 0.0176387 0)
(1.02804 0.0231824 0)
(1.04221 0.028714 0)
(1.06303 0.0344766 0)
(1.09382 0.0403453 0)
(1.09435 0.0418482 0)
(0.830019 0.0228063 0)
(0.17553 0.000649904 0)
(0.154841 -0.000460952 0)
(0.958385 -0.0256454 0)
(1.10452 -0.035038 0)
(1.08818 -0.0325695 0)
(1.06138 -0.0280435 0)
(1.04334 -0.0230585 0)
(1.03093 -0.0177322 0)
(1.0223 -0.0121656 0)
(1.01671 -0.00623188 0)
(1.01402 0.000238563 0)
(1.01461 0.00670288 0)
(1.01838 0.0125712 0)
(1.0252 0.0178558 0)
(1.03532 0.0228224 0)
(1.05001 0.0276235 0)
(1.07194 0.0320387 0)
(1.10092 0.0358927 0)
(1.06952 0.0340678 0)
(0.742201 0.0144916 0)
(0.153063 0.00048631 0)
(0.140201 -0.000332629 0)
(0.901513 -0.0192708 0)
(1.09701 -0.0301219 0)
(1.09637 -0.0292166 0)
(1.06914 -0.0254099 0)
(1.0503 -0.0212969 0)
(1.03731 -0.016567 0)
(1.02828 -0.0112861 0)
(1.0223 -0.00553378 0)
(1.01925 0.000843209 0)
(1.0198 0.00722175 0)
(1.02377 0.0128662 0)
(1.03083 0.0178086 0)
(1.0413 0.0222284 0)
(1.05662 0.0261467 0)
(1.07941 0.02963 0)
(1.10316 0.0323145 0)
(1.0376 0.0282595 0)
(0.675187 0.0103553 0)
(0.137693 0.000362744 0)
(0.129514 -0.000250908 0)
(0.851812 -0.0148637 0)
(1.08476 -0.0259993 0)
(1.10211 -0.0263083 0)
(1.07602 -0.0229576 0)
(1.05667 -0.0192701 0)
(1.04325 -0.0150369 0)
(1.03385 -0.0101357 0)
(1.02757 -0.00459992 0)
(1.02429 0.00159512 0)
(1.02471 0.00775723 0)
(1.02867 0.0131167 0)
(1.03588 0.0176307 0)
(1.04663 0.0214403 0)
(1.0623 0.024756 0)
(1.08553 0.027754 0)
(1.1023 0.0295293 0)
(1.00271 0.0237524 0)
(0.622894 0.00796444 0)
(0.126115 0.000287513 0)
(0.121387 -0.000191792 0)
(0.809523 -0.0116677 0)
(1.06959 -0.0223811 0)
(1.10572 -0.0236445 0)
(1.08233 -0.0207405 0)
(1.06253 -0.017275 0)
(1.04882 -0.0133183 0)
(1.03916 -0.00873231 0)
(1.0326 -0.0034643 0)
(1.02906 0.00250275 0)
(1.0293 0.0083972 0)
(1.0332 0.0134013 0)
(1.04046 0.0174512 0)
(1.05129 0.0207803 0)
(1.06721 0.0236966 0)
(1.09082 0.0263703 0)
(1.09854 0.0272278 0)
(0.967344 0.020219 0)
(0.580822 0.00641053 0)
(0.116904 0.000236241 0)
(0.115107 -0.000146836 0)
(0.773929 -0.00927218 0)
(1.0529 -0.0191902 0)
(1.10815 -0.0211758 0)
(1.08826 -0.0186474 0)
(1.06805 -0.0153374 0)
(1.05408 -0.0115427 0)
(1.04422 -0.00715106 0)
(1.03742 -0.00211465 0)
(1.03361 0.00359761 0)
(1.03361 0.00918472 0)
(1.03737 0.0138081 0)
(1.04455 0.0174466 0)
(1.05538 0.0203927 0)
(1.07152 0.0229753 0)
(1.09481 0.0252934 0)
(1.09192 0.0253354 0)
(0.932838 0.017496 0)
(0.545955 0.00534972 0)
(0.109305 0.00020077 0)
(0.110227 -0.000111219 0)
(0.74411 -0.00741253 0)
(1.03579 -0.0163547 0)
(1.10965 -0.0188478 0)
(1.09391 -0.0166253 0)
(1.07339 -0.0134095 0)
(1.05915 -0.00970608 0)
(1.04908 -0.00543045 0)
(1.04206 -0.000556605 0)
(1.03794 0.00491384 0)
(1.03763 0.0101834 0)
(1.04116 0.0144471 0)
(1.04819 0.0177163 0)
(1.05899 0.0203111 0)
(1.07535 0.0225993 0)
(1.09751 0.0245348 0)
(1.08281 0.0238004 0)
(0.899768 0.0154358 0)
(0.516216 0.0046141 0)
(0.102822 0.000176531 0)
(0.106455 -8.17073e-05 0)
(0.719246 -0.00591187 0)
(1.01907 -0.0138033 0)
(1.11033 -0.0165913 0)
(1.09945 -0.0146431 0)
(1.07867 -0.0114396 0)
(1.06411 -0.0077641 0)
(1.05382 -0.00354491 0)
(1.04653 0.00122583 0)
(1.04208 0.00649502 0)
(1.04138 0.0114673 0)
(1.04459 0.0153928 0)
(1.05143 0.0183076 0)
(1.06217 0.0205631 0)
(1.07872 0.0225862 0)
(1.09883 0.0241082 0)
(1.0716 0.0226204 0)
(0.868248 0.0139255 0)
(0.490123 0.00411205 0)
(0.0971034 0.000160951 0)
(0.103602 -5.61058e-05 0)
(0.698698 -0.00465173 0)
(1.00337 -0.0114696 0)
(1.11035 -0.0143694 0)
(1.10486 -0.0126152 0)
(1.08395 -0.00937459 0)
(1.06906 -0.00566747 0)
(1.0585 -0.00144099 0)
(1.05089 0.00327806 0)
(1.04602 0.00839987 0)
(1.04486 0.0131095 0)
(1.04768 0.0167119 0)
(1.05429 0.0192773 0)
(1.06494 0.0211992 0)
(1.08163 0.0229608 0)
(1.09909 0.0240886 0)
(1.05853 0.0218113 0)
(0.838109 0.0128775 0)
(0.46657 0.00378682 0)
(0.0918856 0.000152191 0)
(0.101546 -3.24836e-05 0)
(0.681995 -0.00354369 0)
(0.989165 -0.00928347 0)
(1.10993 -0.012097 0)
(1.11009 -0.0104528 0)
(1.08932 -0.0071529 0)
(1.07408 -0.00335303 0)
(1.06318 0.000946818 0)
(1.05519 0.00567194 0)
(1.04981 0.0106993 0)
(1.04808 0.0151767 0)
(1.05045 0.0184667 0)
(1.05677 0.0206802 0)
(1.0673 0.0222661 0)
(1.08404 0.0237531 0)
(1.09834 0.0244567 0)
(1.04376 0.0213837 0)
(0.809003 0.0122201 0)
(0.444678 0.00360039 0)
(0.0869602 0.000148799 0)
(0.100225 -9.17836e-06 0)
(0.668831 -0.00251847 0)
(0.976806 -0.00717159 0)
(1.10938 -0.00971477 0)
(1.1153 -0.00809502 0)
(1.09486 -0.00469804 0)
(1.07923 -0.000740192 0)
(1.06795 0.00369559 0)
(1.05948 0.00849486 0)
(1.05348 0.0134789 0)
(1.05107 0.0177514 0)
(1.05288 0.0207388 0)
(1.05886 0.0225899 0)
(1.06924 0.023825 0)
(1.08599 0.0250364 0)
(1.09634 0.0252739 0)
(1.02732 0.0213305 0)
(0.780487 0.0119003 0)
(0.423733 0.00352714 0)
(0.0821611 0.00014973 0)
(0.099623 1.61152e-05 0)
(0.659051 -0.00152285 0)
(0.966617 -0.00506298 0)
(1.10904 -0.00715844 0)
(1.12061 -0.0054703 0)
(1.10066 -0.00192644 0)
(1.08461 0.00226009 0)
(1.07287 0.0069027 0)
(1.06382 0.0118488 0)
(1.05707 0.0168451 0)
(1.05383 0.0209386 0)
(1.05498 0.0236243 0)
(1.06054 0.0250998 0)
(1.07074 0.0259725 0)
(1.0874 0.0268675 0)
(1.09306 0.0265515 0)
(1.00916 0.021697 0)
(0.752061 0.0118919 0)
(0.403132 0.00355302 0)
(0.0773503 0.000154488 0)
(0.0997595 3.56929e-05 0)
(0.652633 -0.000513353 0)
(0.958908 -0.00288474 0)
(1.10925 -0.00435424 0)
(1.12618 -0.00249036 0)
(1.10682 0.00126502 0)
(1.09031 0.00575592 0)
(1.07802 0.0106886 0)
(1.06826 0.0158562 0)
(1.0606 0.0209206 0)
(1.05638 0.0248579 0)
(1.05673 0.0272355 0)
(1.06181 0.028333 0)
(1.07177 0.0288156 0)
(1.08803 0.0293371 0)
(1.08815 0.0283638 0)
(0.989074 0.0225076 0)
(0.723157 0.0121786 0)
(0.382324 0.00366806 0)
(0.072403 0.000162581 0)
(0.100702 7.22895e-05 0)
(0.649691 0.000534081 0)
(0.953996 -0.000557251 0)
(1.11037 -0.00122072 0)
(1.13223 0.00093824 0)
(1.11347 0.00499102 0)
(1.09643 0.00987934 0)
(1.08348 0.0151925 0)
(1.07287 0.0206623 0)
(1.0641 0.0258515 0)
(1.0587 0.0296501 0)
(1.05812 0.0317043 0)
(1.06261 0.0324132 0)
(1.07228 0.0324809 0)
(1.08774 0.0325745 0)
(1.08138 0.0308021 0)
(0.966761 0.0238068 0)
(0.69315 0.0127532 0)
(0.360789 0.00386499 0)
(0.067209 0.000173403 0)
(0.102618 0.00010718 0)
(0.650574 0.00172368 0)
(0.952241 0.00200357 0)
(1.11285 0.00234658 0)
(1.13897 0.00491288 0)
(1.12073 0.00940272 0)
(1.1031 0.0147938 0)
(1.08936 0.0205887 0)
(1.07771 0.0264485 0)
(1.06761 0.0318169 0)
(1.06079 0.0354827 0)
(1.0591 0.0371685 0)
(1.06289 0.0374803 0)
(1.0722 0.0370989 0)
(1.08626 0.0367024 0)
(1.07246 0.0339564 0)
(0.941771 0.0256271 0)
(0.661367 0.0136069 0)
(0.338038 0.00413492 0)
(0.0616731 0.000186232 0)
(0.105586 0.000156364 0)
(0.655732 0.00319607 0)
(0.954122 0.00495691 0)
(1.11718 0.0064672 0)
(1.14663 0.00960268 0)
(1.12879 0.014685 0)
(1.11048 0.0206999 0)
(1.09577 0.0270933 0)
(1.08284 0.0334333 0)
(1.07112 0.0390249 0)
(1.06264 0.0425387 0)
(1.05966 0.0438271 0)
(1.06259 0.0437041 0)
(1.07147 0.0428224 0)
(1.08345 0.0419118 0)
(1.06097 0.0379404 0)
(0.91351 0.0280097 0)
(0.627076 0.0147306 0)
(0.313615 0.00446801 0)
(0.0557184 0.00020013 0)
(0.109892 0.000220014 0)
(0.665566 0.00490186 0)
(0.960086 0.00843457 0)
(1.12384 0.0113057 0)
(1.15548 0.015207 0)
(1.13786 0.0210658 0)
(1.11871 0.0278529 0)
(1.1028 0.034977 0)
(1.08831 0.0418842 0)
(1.07464 0.0477215 0)
(1.06419 0.0510419 0)
(1.0597 0.0518689 0)
(1.06166 0.0512721 0)
(1.07002 0.0498222 0)
(1.07939 0.0483156 0)
(1.04637 0.042866 0)
(0.881216 0.0309737 0)
(0.589494 0.0160965 0)
(0.287103 0.00484561 0)
(0.0492936 0.000213622 0)
(0.11588 0.000305796 0)
(0.680871 0.00702345 0)
(0.970778 0.0126385 0)
(1.13341 0.0171096 0)
(1.16592 0.0219983 0)
(1.14821 0.0288706 0)
(1.128 0.0366074 0)
(1.11059 0.0445976 0)
(1.09415 0.0521368 0)
(1.07814 0.0581936 0)
(1.06539 0.0612282 0)
(1.05908 0.0614791 0)
(1.06002 0.0603702 0)
(1.06785 0.0583129 0)
(1.07378 0.0561102 0)
(1.02796 0.0488065 0)
(0.84396 0.0345039 0)
(0.547824 0.0176471 0)
(0.258183 0.00523761 0)
(0.0423905 0.00022467 0)
(0.124055 0.000428958 0)
(0.702586 0.00979847 0)
(0.987073 0.017879 0)
(1.14655 0.0242238 0)
(1.17843 0.0303704 0)
(1.16015 0.0385592 0)
(1.13855 0.0474416 0)
(1.1192 0.0564178 0)
(1.10034 0.0645971 0)
(1.08152 0.0707673 0)
(1.06612 0.0733578 0)
(1.05777 0.0728948 0)
(1.05759 0.0711454 0)
(1.06482 0.0684092 0)
(1.06625 0.0652302 0)
(1.00477 0.0558068 0)
(0.800652 0.0385207 0)
(0.501329 0.0192775 0)
(0.226704 0.00559913 0)
(0.0350614 0.000230746 0)
(0.135148 0.000603301 0)
(0.731949 0.0136028 0)
(1.01014 0.0246296 0)
(1.16404 0.033201 0)
(1.19363 0.0409226 0)
(1.17404 0.0508042 0)
(1.15053 0.0610253 0)
(1.12865 0.0710423 0)
(1.10677 0.0797537 0)
(1.08463 0.0857996 0)
(1.06622 0.0876811 0)
(1.05569 0.0863309 0)
(1.05432 0.0838847 0)
(1.06059 0.0802659 0)
(1.05599 0.0759773 0)
(0.975596 0.0638208 0)
(0.750088 0.0428452 0)
(0.449453 0.0208224 0)
(0.192787 0.00586956 0)
(0.027438 0.000229031 0)
(0.150438 0.000885145 0)
(0.771025 0.0190459 0)
(1.04163 0.0336863 0)
(1.18683 0.0449954 0)
(1.21231 0.0548942 0)
(1.19021 0.0666592 0)
(1.16399 0.078328 0)
(1.13879 0.0892564 0)
(1.11318 0.0981704 0)
(1.0872 0.10365 0)
(1.06548 0.10442 0)
(1.05265 0.101927 0)
(1.05008 0.0986679 0)
(1.05486 0.0942831 0)
(1.04211 0.0883588 0)
(0.938844 0.0726164 0)
(0.691088 0.0471421 0)
(0.392056 0.0220398 0)
(0.156953 0.00597407 0)
(0.0197473 0.000216652 0)
(0.172154 0.00137176 0)
(0.823108 0.02731 0)
(1.08425 0.0466419 0)
(1.21606 0.061493 0)
(1.23499 0.0741854 0)
(1.20875 0.0877461 0)
(1.17868 0.100664 0)
(1.14918 0.111993 0)
(1.11913 0.120441 0)
(1.08882 0.12465 0)
(1.06361 0.123751 0)
(1.04848 0.119777 0)
(1.04474 0.11551 0)
(1.04765 0.110224 0)
(1.0233 0.102222 0)
(0.892566 0.0817209 0)
(0.622844 0.0509093 0)
(0.329813 0.0226437 0)
(0.12029 0.00584076 0)
(0.0123242 0.000190726 0)
(0.203758 0.00245556 0)
(0.893999 0.0411522 0)
(1.14147 0.0673841 0)
(1.25212 0.0862357 0)
(1.26148 0.101626 0)
(1.22905 0.116424 0)
(1.19377 0.129625 0)
(1.15901 0.140224 0)
(1.12389 0.14709 0)
(1.08898 0.149027 0)
(1.0603 0.145725 0)
(1.04302 0.139884 0)
(1.0382 0.134429 0)
(1.03833 0.12812 0)
(0.997718 0.117098 0)
(0.834508 0.0903022 0)
(0.54566 0.0535087 0)
(0.264959 0.022444 0)
(0.0847613 0.00546703 0)
(0.00568967 0.000153845 0)
(0.246804 0.00881812 4.08828e-20)
(0.987769 0.0688054 3.58388e-20)
(1.21104 0.102178 -1.26031e-20)
(1.29199 0.12283 0)
(1.28893 0.140841 -3.29268e-34)
(1.24895 0.155039 4.83223e-21)
(1.20769 0.166738 -8.80299e-21)
(1.16717 0.17518 0)
(1.12667 0.179369 1.83263e-34)
(1.08694 0.178227 -1.11108e-20)
(1.05463 0.172068 0)
(1.03518 0.164267 -1.33147e-20)
(1.02967 0.157981 -3.93693e-20)
(1.02551 0.151303 -1.86332e-20)
(0.960672 0.135362 -5.62114e-21)
(0.757761 0.0995043 -3.34252e-21)
(0.454276 0.0550442 0)
(0.196204 0.021752 2.33527e-21)
(0.0504198 0.00506992 2.7566e-21)
(-0.000208923 9.9324e-05 4.97362e-20)
(0.276976 0.0246056 2.79756e-20)
(1.06524 0.112054 5.53879e-22)
(1.26839 0.151782 3.27092e-21)
(1.3278 0.172626 0)
(1.31308 0.190382 -1.63914e-20)
(1.26612 0.202416 -1.87765e-20)
(1.21897 0.211807 -8.80495e-21)
(1.17266 0.21779 -3.16731e-20)
(1.12663 0.219261 0)
(1.08177 0.215136 4.71382e-20)
(1.04551 0.206283 4.6948e-20)
(1.02374 0.196616 1.39752e-20)
(1.01595 0.188813 5.12404e-20)
(1.00167 0.180119 7.2276e-20)
(0.90114 0.156162 0)
(0.652349 0.108244 1.02027e-19)
(0.34682 0.0556441 1.46187e-19)
(0.125041 0.0202126 1.62261e-19)
(0.0162604 0.00345933 -1.85443e-19)
(-0.00603579 -0.000512957 -3.49543e-21)
(0.27804 0.0407469 0)
(1.11432 0.168058 4.46886e-21)
(1.30717 0.212784 0)
(1.3557 0.233036 -2.00817e-20)
(1.33214 0.24762 0)
(1.2793 0.255759 -3.62817e-20)
(1.22667 0.261397 1.78233e-20)
(1.1749 0.263788 -6.31484e-20)
(1.12365 0.261636 -1.59559e-21)
(1.07397 0.25384 2.42275e-20)
(1.03405 0.241803 1.03093e-19)
(1.01015 0.229957 -1.83383e-22)
(0.99983 0.220433 -3.71762e-20)
(0.975304 0.208558 -6.7831e-20)
(0.846337 0.175534 8.03938e-20)
(0.574539 0.115378 -1.4228e-19)
(0.281932 0.0560848 -1.87437e-20)
(0.0863841 0.0184571 0)
(-0.00215587 0.00109236 -1.64996e-23)
(-0.00936664 -0.00133136 0)
(0.271427 0.054681 4.6047e-20)
(1.14084 0.227336 -2.43528e-20)
(1.33119 0.278269 -2.11582e-20)
(1.37429 0.298594 9.14546e-21)
(1.34463 0.309139 -1.55144e-20)
(1.2874 0.312702 7.54862e-20)
(1.23027 0.313882 3.69169e-20)
(1.17382 0.311998 0)
(1.11795 0.305624 -1.20115e-19)
(1.06391 0.29362 0)
(1.02067 0.277951 -5.38198e-20)
(0.994818 0.263523 -6.69039e-20)
(0.981984 0.25176 -4.03634e-20)
(0.948728 0.235743 -4.91678e-20)
(0.801154 0.1937 0)
(0.522293 0.12331 0)
(0.244445 0.0579606 -1.21653e-19)
(0.0636748 0.0168529 2.39871e-20)
(-0.014546 -0.00175443 -1.40564e-20)
(-0.0121187 -0.00236333 -1.64443e-20)
(0.263444 0.0669398 -9.05516e-21)
(1.15241 0.286385 0)
(1.34439 0.344609 3.82079e-20)
(1.38453 0.36549 2.44836e-20)
(1.35065 0.372076 3.6542e-20)
(1.29024 0.371021 0)
(1.22959 0.36761 3.55196e-20)
(1.1693 0.361224 6.92136e-20)
(1.10947 0.350359 6.1089e-20)
(1.05156 0.333834 1.13715e-19)
(1.00529 0.314206 0)
(0.977556 0.296878 -1.43858e-19)
(0.962367 0.282524 -8.68745e-20)
(0.921952 0.261997 -5.14116e-20)
(0.765056 0.211493 3.1507e-19)
(0.489111 0.132295 3.74046e-20)
(0.224079 0.0610505 1.75685e-19)
(0.0507226 0.0154826 -8.29738e-19)
(-0.0233393 -0.00495264 4.89983e-19)
(-0.014637 -0.00359827 -5.90577e-19)
(0.255636 0.0779422 7.35134e-21)
(1.15431 0.343305 1.29681e-21)
(1.34969 0.409861 -2.90659e-21)
(1.38804 0.431826 -2.09319e-20)
(1.35114 0.434692 -2.85589e-20)
(1.28837 0.429188 1.79816e-21)
(1.22495 0.421316 -3.85045e-20)
(1.16151 0.410472 7.10554e-20)
(1.09831 0.395091 -1.31291e-19)
(1.03696 0.373945 0)
(0.987899 0.350173 -6.49522e-20)
(0.958312 0.329706 -1.5646e-21)
(0.940872 0.31252 -9.50278e-20)
(0.895351 0.287518 0)
(0.735742 0.229535 -6.81231e-20)
(0.468304 0.142722 -1.6129e-19)
(0.21411 0.0654384 4.29026e-19)
(0.0451163 0.0147377 -4.22443e-19)
(-0.0282189 -0.00792958 5.98573e-19)
(-0.0165305 -0.00488228 -6.22115e-19)
(0.248893 0.0880321 -4.27397e-22)
(1.15008 0.397411 3.14125e-21)
(1.34924 0.473019 -1.68491e-21)
(1.38624 0.496397 6.55092e-21)
(1.34717 0.495941 -1.40004e-20)
(1.28263 0.486267 0)
(1.21698 0.474176 -3.49016e-20)
(1.15091 0.459054 -7.4111e-20)
(1.08478 0.439278 -6.79566e-20)
(1.02036 0.413554 0)
(0.968665 0.385594 -6.70733e-20)
(0.937205 0.361866 -8.35645e-20)
(0.917669 0.341729 1.0301e-19)
(0.868813 0.312291 -6.25807e-20)
(0.710925 0.247976 -2.96914e-19)
(0.454717 0.154598 1.75715e-19)
(0.211353 0.0712435 5.20334e-20)
(0.0451439 0.0151445 0)
(-0.0294027 -0.0101315 -5.77933e-19)
(-0.0175668 -0.0060288 -2.12138e-20)
(0.243351 0.0975241 4.35281e-21)
(1.14209 0.44851 -6.18816e-21)
(1.34456 0.533615 -4.64495e-22)
(1.38041 0.558487 2.60627e-20)
(1.3397 0.555163 -4.81425e-20)
(1.27382 0.541683 6.59405e-20)
(1.20636 0.525669 7.52381e-20)
(1.13807 0.506522 -1.18314e-19)
(1.06935 0.482559 4.25708e-20)
(1.00209 0.452395 -2.79005e-19)
(0.947894 0.420295 -7.61612e-20)
(0.91456 0.393289 0)
(0.893021 0.370194 1.11841e-19)
(0.841891 0.336547 1.34227e-19)
(0.688224 0.266846 1.60077e-19)
(0.444456 0.167509 -1.91061e-19)
(0.211392 0.0783067 -5.64359e-20)
(0.0484383 0.0169781 6.63297e-20)
(-0.0274867 -0.0112134 0)
(-0.0176482 -0.00685863 -4.61116e-20)
(0.238956 0.106587 -6.95104e-20)
(1.13203 0.496712 3.81825e-20)
(1.33692 0.591439 2.19071e-21)
(1.37156 0.617764 1.32382e-20)
(1.32956 0.611968 -1.95341e-20)
(1.26264 0.59505 -4.12134e-21)
(1.19371 0.575461 -8.26242e-20)
(1.12349 0.552596 -4.2912e-20)
(1.05244 0.5247 -1.18233e-19)
(0.982547 0.490302 3.25581e-22)
(0.925934 0.454172 -2.38209e-19)
(0.89073 0.423946 2.02392e-19)
(0.867246 0.397923 -1.23196e-19)
(0.814571 0.360338 1.48203e-19)
(0.66627 0.285577 0)
(0.434794 0.181014 -1.04155e-19)
(0.21209 0.0862528 3.37166e-22)
(0.0532574 0.0200174 -2.90042e-19)
(-0.0236761 -0.0111688 -4.25277e-20)
(-0.017004 -0.00735227 0)
(0.235603 0.115369 0)
(1.1209 0.542248 4.42186e-20)
(1.32727 0.64694 1.62876e-20)
(1.36053 0.674106 -9.3897e-21)
(1.31743 0.666155 -2.76053e-20)
(1.24972 0.64616 0)
(1.17956 0.623341 -3.62475e-20)
(1.10766 0.597088 -1.0395e-21)
(1.03449 0.565562 2.53651e-19)
(0.962087 0.52717 -3.82212e-20)
(0.903105 0.487166 -1.72271e-19)
(0.866035 0.453792 1.05128e-19)
(0.840714 0.424916 -2.22808e-21)
(0.786813 0.383457 1.58002e-19)
(0.644028 0.303825 9.67158e-20)
(0.424116 0.194576 -2.24978e-19)
(0.211945 0.0944693 2.65981e-19)
(0.0580763 0.0238626 7.88568e-20)
(-0.0188666 -0.010205 3.24635e-19)
(-0.0158034 -0.00751776 -8.67393e-19)
(0.233217 0.124042 -2.37156e-20)
(1.10945 0.585309 3.16622e-20)
(1.31619 0.699418 -2.10067e-20)
(1.34795 0.727505 1.92642e-21)
(1.3039 0.717634 0)
(1.23556 0.694892 -2.74273e-20)
(1.16438 0.669192 1.23475e-19)
(1.09099 0.639885 9.37682e-20)
(1.01584 0.605048 0)
(0.941012 0.562938 -5.53085e-19)
(0.87969 0.519221 4.67258e-19)
(0.840792 0.482764 0)
(0.813694 0.451042 1.44569e-19)
(0.758679 0.405748 -2.19699e-21)
(0.620777 0.321249 -3.11459e-19)
(0.41167 0.207511 1.21495e-19)
(0.209634 0.102587 0)
(0.0616833 0.0281179 4.2655e-19)
(-0.0141086 -0.00862619 0)
(-0.0143319 -0.00742179 -4.11571e-19)
(0.231672 0.132663 2.86221e-20)
(1.09811 0.626152 4.17313e-20)
(1.30431 0.748963 -2.06e-20)
(1.33431 0.777973 0)
(1.28943 0.766392 -1.94018e-20)
(1.22061 0.741216 0)
(1.14856 0.712952 -1.19782e-19)
(1.07383 0.680927 -4.26172e-20)
(0.996817 0.643114 4.44671e-20)
(0.91961 0.597581 -2.73917e-19)
(0.855922 0.550318 4.81834e-20)
(0.8152 0.510816 0)
(0.786407 0.476194 -3.094e-19)
(0.730261 0.426912 2.08427e-21)
(0.596291 0.337443 0)
(0.397331 0.219121 8.30973e-22)
(0.20488 0.109896 3.91049e-19)
(0.0633327 0.0320835 -3.69218e-19)
(-0.0102406 -0.00694151 1.08857e-19)
(-0.0128836 -0.00718006 0)
(0.230636 0.141151 0)
(1.08716 0.664912 5.06415e-20)
(1.29188 0.79573 3.12704e-20)
(1.32003 0.825569 -2.5692e-21)
(1.27442 0.812459 -3.12867e-21)
(1.20521 0.785134 -6.20235e-20)
(1.13243 0.754611 4.56566e-20)
(1.05648 0.72019 -5.12811e-20)
(0.977698 0.679735 1.99873e-19)
(0.89812 0.6311 -4.38995e-19)
(0.831994 0.580466 -4.27362e-21)
(0.789419 0.537919 -1.35144e-19)
(0.758956 0.500257 5.0312e-19)
(0.701625 0.446723 -2.54581e-21)
(0.570744 0.352029 -2.42996e-19)
(0.38096 0.229055 -4.30475e-19)
(0.197839 0.115871 0)
(0.0628353 0.0352394 0)
(-0.00762912 -0.00554288 1.17678e-19)
(-0.0116251 -0.00691764 -6.90464e-20)
(0.230329 0.149625 4.05523e-20)
(1.07683 0.701492 -1.153e-19)
(1.27914 0.839862 -3.3509e-20)
(1.30545 0.870361 0)
(1.25915 0.855896 -1.49693e-21)
(1.18965 0.826678 -5.3031e-20)
(1.11626 0.794184 1.07869e-19)
(1.0392 0.757677 1.99645e-19)
(0.95872 0.714917 2.59538e-19)
(0.876754 0.663515 -3.58887e-19)
(0.808073 0.609708 -4.0401e-19)
(0.763545 0.564089 3.62009e-19)
(0.7314 0.52312 0)
(0.672821 0.464853 -1.10914e-19)
(0.544471 0.364532 -2.62763e-19)
(0.36297 0.236883 -3.1004e-19)
(0.188721 0.120129 -3.65495e-19)
(0.06055 0.0371909 1.07923e-19)
(-0.00620693 -0.00467948 -6.34088e-20)
(-0.0106128 -0.00670592 3.21871e-22)
(0.230205 0.158011 0)
(1.06725 0.736153 0)
(1.26636 0.881456 2.45389e-21)
(1.29081 0.912462 0)
(1.24388 0.896797 -2.88069e-21)
(1.17417 0.86591 3.28366e-20)
(1.10027 0.831701 0)
(1.02219 0.793403 2.32947e-20)
(0.940081 0.748669 4.33191e-19)
(0.855709 0.694857 -8.26824e-19)
(0.784311 0.638114 0)
(0.737643 0.589366 -2.33746e-19)
(0.703685 0.544701 -2.9885e-21)
(0.643752 0.481045 -2.19325e-21)
(0.517614 0.374635 2.81952e-19)
(0.343638 0.242192 3.68562e-23)
(0.177968 0.122417 -7.88174e-19)
(0.0568068 0.037868 2.32296e-19)
(-0.00579252 -0.00438009 6.86706e-20)
(-0.00983351 -0.00655681 0)
(0.230207 0.166263 -1.63145e-19)
(1.05818 0.769165 -7.84474e-20)
(1.25366 0.920604 -1.00563e-19)
(1.27628 0.952009 9.29962e-20)
(1.22879 0.935239 -2.00306e-20)
(1.15894 0.902897 0)
(1.08461 0.867212 6.38541e-20)
(1.00561 0.827397 -5.25055e-20)
(0.921952 0.781015 3.93436e-21)
(0.835162 0.725168 6.12422e-20)
(0.760844 0.665766 5.25194e-19)
(0.711732 0.613839 -8.20459e-20)
(0.675726 0.564994 -3.11542e-19)
(0.614343 0.495072 -1.29543e-19)
(0.490303 0.381904 1.52884e-19)
(0.323346 0.244652 1.82847e-22)
(0.166236 0.122502 2.12439e-19)
(0.0520793 0.0372979 -5.00414e-19)
(-0.00602331 -0.00455004 5.91475e-19)
(-0.0092194 -0.00645479 8.62303e-20)
(0.23021 0.174289 6.20656e-20)
(1.04962 0.800601 -4.42535e-20)
(1.24117 0.957411 6.26346e-21)
(1.26199 0.989138 6.11254e-20)
(1.21402 0.971333 1.09965e-20)
(1.1441 0.937714 -5.46904e-20)
(1.06943 0.900769 1.73384e-20)
(0.989609 0.859684 -2.18508e-19)
(0.904475 0.811961 -4.78105e-19)
(0.815258 0.754463 -4.94027e-19)
(0.737815 0.692753 0)
(0.685843 0.637648 -3.61856e-19)
(0.647395 0.584075 4.50077e-19)
(0.58433 0.506723 0)
(0.462547 0.385857 -3.27963e-19)
(0.302999 0.24379 1.94473e-19)
(0.154505 0.120199 -2.28621e-19)
(0.0473648 0.035686 -2.69389e-19)
(-0.00650124 -0.00497382 -4.76462e-19)
(-0.00875406 -0.00639443 -3.71653e-19)
(0.230547 0.182188 -7.03827e-20)
(1.04143 0.830463 4.73579e-20)
(1.22896 0.991954 1.07181e-19)
(1.24804 1.02394 9.03409e-20)
(1.19967 1.00518 -1.90617e-20)
(1.12974 0.970449 -2.55811e-20)
(1.05483 0.932427 5.90537e-20)
(0.974273 0.890308 -2.23722e-19)
(0.887748 0.841532 -2.83699e-19)
(0.796131 0.782769 5.18158e-19)
(0.715352 0.719155 1.15813e-18)
(0.660031 0.660972 0)
(0.618545 0.602111 0)
(0.553332 0.515922 -1.49288e-19)
(0.434084 0.385981 0)
(0.283035 0.238597 4.17892e-19)
(0.144559 0.114611 4.9147e-19)
(0.0448 0.0327908 0)
(-0.00606634 -0.00548876 0)
(-0.0084737 -0.00640609 3.99582e-19)
(0.230612 0.189671 8.02043e-20)
(1.03362 0.858751 6.45947e-20)
(1.21709 1.02436 7.79477e-20)
(1.23449 1.05654 -8.80764e-20)
(1.18583 1.03688 -2.73691e-20)
(1.11595 1.00118 2.02718e-20)
(1.04087 0.962246 -8.05279e-20)
(0.959679 0.919299 -7.99886e-22)
(0.87186 0.869737 -5.13129e-21)
(0.777885 0.810091 -4.21875e-21)
(0.693603 0.745037 5.97507e-19)
(0.634396 0.684002 0)
(0.589067 0.619364 4.57954e-19)
(0.520874 0.522795 3.19518e-19)
(0.404135 0.381925 7.66493e-19)
(0.263117 0.227428 2.25451e-19)
(0.138171 0.102529 -2.64431e-19)
(0.0495872 0.0248754 -1.55277e-19)
(0.00236765 -0.00739922 0)
(-0.00602312 -0.00569838 4.29572e-19)
(0.231028 0.19718 -1.81219e-19)
(1.02615 0.885559 0)
(1.20556 1.05469 9.22721e-20)
(1.2214 1.08702 -7.50467e-20)
(1.17255 1.06654 4.0065e-20)
(1.10276 1.03 -1.08295e-20)
(1.0276 0.990285 1.51646e-19)
(0.945869 0.946691 -1.84192e-20)
(0.856863 0.896585 0)
(0.76061 0.836406 -5.73028e-19)
(0.672714 0.770428 -1.30188e-18)
(0.609086 0.706921 5.36826e-20)
(0.558962 0.636171 6.34562e-19)
(0.486557 0.527779 0)
(0.371339 0.373962 5.18403e-19)
(0.240769 0.208766 0)
(0.13313 0.0766829 0)
(0.0670617 -0.00427189 -1.67877e-19)
(0.0418323 -0.0208835 0)
(0.0257409 0.00906643 1.15215e-19)
(0.231111 0.204121 -2.02833e-19)
(1.01899 0.911235 0)
(1.19436 1.08315 1.54179e-19)
(1.20871 1.1156 0)
(1.15979 1.09442 -2.52657e-20)
(1.09012 1.05719 0)
(1.01498 1.01686 6.54197e-21)
(0.932748 0.972819 3.08503e-20)
(0.842634 0.922433 3.57846e-20)
(0.744133 0.862095 -6.2896e-19)
(0.652486 0.795767 3.90021e-20)
(0.583839 0.730392 4.3377e-19)
(0.527728 0.653389 6.20202e-19)
(0.449374 0.531501 8.361e-20)
(0.333468 0.363376 4.07417e-19)
(0.210272 0.183419 0)
(0.116331 0.0318809 5.57331e-19)
(0.0642063 -0.0451069 -3.25121e-19)
(0.0405492 0.0383513 3.78481e-19)
(-0.0690866 0.439387 -4.45847e-19)
(0.231209 0.210884 1.68194e-19)
(1.01186 0.935552 2.58225e-19)
(1.18339 1.11005 0)
(1.19629 1.14275 4.84801e-21)
(1.14734 1.1211 7.65315e-20)
(1.07776 1.08342 -1.80036e-20)
(1.00266 1.04275 4.96499e-20)
(0.919895 0.998609 0)
(0.828627 0.948352 2.35103e-19)
(0.727769 0.888442 -3.26106e-20)
(0.631984 0.822523 0)
(0.55734 0.75606 0)
(0.49325 0.672423 5.57571e-19)
(0.406746 0.534413 -2.59035e-19)
(0.287087 0.351869 -4.14484e-19)
(0.166225 0.154376 0)
(0.0690749 0.0461498 2.81636e-19)
(0.00230474 0.435077 -3.24435e-19)
(0.0320482 1.8977 -1.76888e-19)
(0.0611203 2.81538 -2.268e-19)
(0.231171 0.216856 -1.26484e-19)
(1.00499 0.958701 -3.31828e-19)
(1.17268 1.13538 9.18044e-20)
(1.18414 1.16831 7.44979e-20)
(1.13523 1.14635 0)
(1.06575 1.10842 -2.32211e-20)
(0.990858 1.06765 6.30337e-20)
(0.907508 1.02364 -1.47491e-20)
(0.815123 0.973836 3.53228e-20)
(0.711914 0.914852 6.00125e-19)
(0.611822 0.850089 6.61605e-19)
(0.530511 0.783596 4.89269e-19)
(0.456313 0.693591 5.63103e-19)
(0.360079 0.535699 -6.11983e-19)
(0.237164 0.343238 -6.28518e-19)
(0.113264 0.20165 0)
(0.0405083 0.837397 0)
(0.0977657 2.55593 1.55128e-19)
(0.0991671 3.20488 0)
(0.102645 3.38931 3.67832e-19)
(0.233665 0.222416 0)
(0.99896 0.980887 0)
(1.16199 1.159 0)
(1.17204 1.19215 2.27281e-20)
(1.12313 1.16991 7.02084e-20)
(1.05388 1.13205 -2.95607e-20)
(0.97946 1.09146 3.87948e-20)
(0.895548 1.04779 -1.4274e-20)
(0.802089 0.998751 2.92135e-19)
(0.696605 0.941192 -8.59465e-21)
(0.59217 0.878392 1.3095e-18)
(0.503659 0.812881 -5.67144e-20)
(0.417094 0.718234 6.83508e-20)
(0.31186 0.533078 8.88981e-20)
(0.173557 0.354427 -6.15256e-21)
(0.0941779 0.962491 1.84255e-21)
(0.135728 2.7287 -8.28069e-19)
(0.14343 3.29365 -3.08779e-19)
(0.133247 3.4253 1.58213e-19)
(0.121515 3.44744 -1.75824e-19)
(0.152598 0.179985 7.50841e-20)
(0.987492 1.00484 0)
(1.15091 1.1811 -1.84324e-19)
(1.16053 1.21476 -2.03158e-19)
(1.11191 1.19263 1.69449e-19)
(1.0431 1.15502 3.60903e-20)
(0.968403 1.11427 -3.75389e-20)
(0.884129 1.07122 1.51647e-19)
(0.789702 1.02328 -2.38271e-19)
(0.682148 0.96765 0)
(0.573468 0.907656 6.44167e-19)
(0.477355 0.843838 -4.00898e-19)
(0.378147 0.749352 0)
(0.256441 0.527022 8.35459e-20)
(0.136693 0.715696 1.98637e-19)
(0.151537 2.50465 -2.2893e-19)
(0.207308 3.32158 2.55836e-19)
(0.188292 3.43663 1.36632e-19)
(0.156999 3.45846 1.52189e-19)
(0.135815 3.46897 2.3994e-19)
(0.276227 0.259806 -1.36919e-19)
(0.971683 1.01413 0)
(1.13238 1.2062 2.01451e-19)
(1.14511 1.24512 2.23203e-19)
(1.09426 1.22558 -1.89973e-19)
(1.02467 1.18832 -5.89003e-20)
(0.949044 1.14922 2.22755e-20)
(0.864227 1.10739 1.20654e-20)
(0.76841 1.06162 2.25222e-19)
(0.657938 1.00994 5.17439e-19)
(0.543608 0.956466 3.61624e-20)
(0.435565 0.896851 3.57665e-19)
(0.305336 0.781616 6.46102e-20)
(0.209118 0.895359 -8.23567e-20)
(0.226384 2.35223 -1.85083e-19)
(0.288069 3.32238 1.7473e-19)
(0.270881 3.46374 -1.91443e-19)
(0.235817 3.48629 -1.09732e-19)
(0.199151 3.51445 -9.00083e-20)
(0.147852 3.50921 -1.053e-20)
(0.263956 0.256583 0)
(0.968995 1.03647 5.88083e-20)
(1.12378 1.22952 -4.17224e-20)
(1.13426 1.26869 -2.68287e-20)
(1.08323 1.24873 -1.32378e-19)
(1.01359 1.21169 6.22184e-20)
(0.937621 1.17273 -6.48189e-21)
(0.852572 1.1317 1.06375e-20)
(0.756166 1.08742 -2.33453e-19)
(0.644267 1.03865 -1.3449e-20)
(0.52685 0.990134 -1.16609e-18)
(0.413035 0.934744 5.12463e-20)
(0.284886 0.846072 -6.09258e-20)
(0.252822 1.46937 -7.59707e-20)
(0.328948 3.09946 1.82269e-20)
(0.347575 3.46021 -1.10622e-23)
(0.307512 3.5169 2.70617e-19)
(0.270338 3.54468 1.29057e-19)
(0.221877 3.56872 -2.6506e-20)
(0.163063 3.56529 -4.71364e-20)
(0.247794 0.255057 1.49416e-19)
(0.964714 1.06148 4.01678e-19)
(1.11478 1.25494 -1.19546e-19)
(1.12281 1.29367 -1.01126e-19)
(1.07157 1.27321 0)
(1.00206 1.23624 1.17726e-19)
(0.926065 1.19751 5.43962e-21)
(0.841066 1.15727 9.09072e-21)
(0.744395 1.1146 -2.62242e-20)
(0.631609 1.06904 -4.65744e-19)
(0.511964 1.02587 -5.37204e-19)
(0.394042 0.973845 -4.17637e-19)
(0.285816 0.976401 -4.62169e-19)
(0.323998 2.20017 4.76202e-19)
(0.417345 3.36953 3.92846e-19)
(0.392704 3.51701 0)
(0.347568 3.56332 0)
(0.309583 3.60515 -1.99966e-20)
(0.259004 3.66579 0)
(0.176008 3.6424 -1.40301e-20)
(0.237159 0.256903 -2.24123e-19)
(0.95852 1.08756 -3.41528e-19)
(1.10433 1.28152 0)
(1.10998 1.31936 5.81516e-21)
(1.0586 1.29829 -1.45111e-19)
(0.989393 1.26126 1.93945e-19)
(0.913706 1.22282 1.20656e-20)
(0.828963 1.1833 4.08426e-21)
(0.732269 1.14216 -1.61168e-19)
(0.619016 1.09982 2.2934e-20)
(0.498099 1.06211 0)
(0.37462 1.01411 0)
(0.307131 1.23683 -4.20503e-19)
(0.409346 2.88107 1.70163e-19)
(0.490121 3.47603 2.13425e-19)